
    -----------------------------------------------------------------------
          Psi4: An Open-Source Ab Initio Electronic Structure Package
                               Psi4 1.11 release

                         Git: Rev {} zzzzzzz 


    D. G. A. Smith, L. A. Burns, A. C. Simmonett, R. M. Parrish,
    M. C. Schieber, R. Galvelis, P. Kraus, H. Kruse, R. Di Remigio,
    A. Alenaizan, A. M. James, S. Lehtola, J. P. Misiewicz, M. Scheurer,
    R. A. Shaw, J. B. Schriber, Y. Xie, Z. L. Glick, D. A. Sirianni,
    J. S. O'Brien, J. M. Waldrop, A. Kumar, E. G. Hohenstein,
    B. P. Pritchard, B. R. Brooks, H. F. Schaefer III, A. Yu. Sokolov,
    K. Patkowski, A. E. DePrince III, U. Bozkaya, R. A. King,
    F. A. Evangelista, J. M. Turney, T. D. Crawford, C. D. Sherrill,
    J. Chem. Phys. 152(18) 184108 (2020). https://doi.org/10.1063/5.0006002

                            Additional Code Authors
    E. T. Seidl, C. L. Janssen, E. F. Valeev, M. L. Leininger,
    J. F. Gonthier, R. M. Richard, H. R. McAlexander, M. Saitow, X. Wang,
    P. Verma, M. H. Lechner, A. Jiang, S. Behnle, A. G. Heide,
    M. F. Herbst, D. L. Poole, T. Győri, E. C. Mitchell, J. P. Pederson,
    and A. M. Wallace

             Previous Authors, Complete List of Code Contributors,
                       and Citations for Specific Modules
    https://github.com/psi4/psi4/blob/master/codemeta.json
    https://github.com/psi4/psi4/graphs/contributors
    https://psicode.org/psi4manual/master/introduction.html#citing-psifour

    -----------------------------------------------------------------------


    Psi4 started on: Sunday, 19 July 2026 01:38PM

    Process ID: 23704
    Host:       PNNL-KM3X724WWL
    PSIDATADIR: /opt/miniconda3/envs/rsfff/share/psi4
    Memory:     7.5 GiB
    Threads:    14
    Addons:     a̶d̶c̶c̶, a̶m̶b̶i̶t̶, b̶s̶e̶, c̶c̶t̶3̶, c̶f̶o̶u̶r̶, c̶h̶e̶m̶p̶s̶2̶, c̶p̶p̶e̶, d̶d̶x̶,
                d̶f̶t̶d̶3̶, d̶f̶t̶d̶4̶, dkh, ecpint, einsums, f̶o̶r̶t̶e̶, gauxc, g̶c̶p̶,
                g̶d̶m̶a̶, g̶e̶o̶m̶e̶t̶r̶i̶c̶, g̶p̶u̶_̶d̶f̶c̶c̶, i̶n̶t̶e̶g̶r̶a̶t̶o̶r̶x̶x̶,
                i̶p̶i̶, l̶i̶b̶e̶f̶p̶, m̶d̶i̶, m̶p̶2̶d̶, m̶r̶c̶c̶, ooo,
                o̶p̶e̶n̶f̶e̶r̶m̶i̶o̶n̶p̶s̶i̶4̶, pcmsolver, p̶s̶i̶4̶f̶o̶c̶k̶c̶i̶, p̶s̶i̶x̶a̶s̶,
                p̶y̶e̶i̶n̶s̶u̶m̶s̶, r̶e̶s̶p̶, s̶i̶m̶i̶n̶t̶, s̶n̶s̶m̶p̶2̶,
                v̶2̶r̶d̶m̶_̶c̶a̶s̶s̶c̶f̶

Scratch directory: /tmp/
   => Libint2 <=

    Primary   basis highest AM E, G, H:  7, 6, 3
    Auxiliary basis highest AM E, G, H:  7, 7, 4
    Onebody   basis highest AM E, G, H:  -, -, -
    Solid Harmonics ordering:            Gaussian

*** tstart() called on PNNL-KM3X724WWL
*** at Sun Jul 19 13:38:29 2026

   => Loading Basis Set <=

    Name: DEF2-SVPD
    Role: ORBITAL
    Keyword: BASIS
    atoms 1 entry H          line    14 file /opt/miniconda3/envs/rsfff/share/psi4/basis/def2-svpd.gbs 


         ---------------------------------------------------------
                                   SCF
               by Justin Turney, Rob Parrish, Andy Simmonett
                          and Daniel G. A. Smith
                              UKS Reference
                       14 Threads,   7629 MiB Core
         ---------------------------------------------------------

  ==> Geometry <==

    Molecular point group: c1
    Geometry (in Angstrom), charge = 0, multiplicity = 2:

       Center              X                  Y                   Z               Mass       
    ------------   -----------------  -----------------  -----------------  -----------------
         H            0.000000000000     0.000000000000     0.000000000000     1.007825032230

  Running in c1 symmetry.

  Rotational constants: A = ************  B = ************  C = ************ [cm^-1]
  Rotational constants: A = ************  B = ************  C = ************ [MHz]
  Nuclear repulsion =    0.000000000000000

  Charge       = 0
  Multiplicity = 2
  Electrons    = 1
  Nalpha       = 1
  Nbeta        = 0

  ==> Algorithm <==

  SCF Algorithm Type is DF.
  DIIS enabled.
  MOM disabled.
  Fractional occupation disabled.
  Guess Type is CORE.
  Energy threshold   = 1.00e-09
  Density threshold  = 1.00e-09
  Integral threshold = 1.00e-12

  ==> Primary Basis <==

  Basis Set: DEF2-SVPD
    Blend: DEF2-SVPD
    Number of shells: 4
    Number of basis functions: 8
    Number of Cartesian functions: 8
    Spherical Harmonics?: true
    Max angular momentum: 1

  ==> DFT Potential <==

   => LibXC <=

    Version 7.0.0
    S. Lehtola, C. Steigemann, M. J.T. Oliveira, and M. A.L. Marques.,  SoftwareX 7, 1–5 (2018) (10.1016/j.softx.2017.11.002)

   => Composite Functional: B3LYP <= 

    B3LYP Hyb-GGA Exchange-Correlation Functional

    P. J. Stephens, F. J. Devlin, C. F. Chabalowski, and M. J. Frisch.,  J. Phys. Chem. 98, 11623 (1994) (10.1021/j100096a001)

    Deriv               =              1
    GGA                 =           TRUE
    Meta                =          FALSE

    Exchange Hybrid     =           TRUE
    MP2 Hybrid          =          FALSE

   => Exchange Functionals <=

    0.0800   Slater exchange
    0.7200         Becke 88

   => Exact (HF) Exchange <=

    0.2000               HF 

   => Correlation Functionals <=

    0.1900   Vosko, Wilk & Nusair (VWN5_RPA)
    0.8100   Lee, Yang & Parr

   => LibXC Density Thresholds  <==

    XC_HYB_GGA_XC_B3LYP:  1.00E-15 

   => Molecular Quadrature <=

    Radial Scheme          =       TREUTLER
    Pruning Scheme         =           NONE
    Nuclear Scheme         =       TREUTLER

    Blocking Scheme        =         OCTREE
    BS radius alpha        =              1
    Pruning alpha          =              1
    Radial Points          =             75
    Spherical Points       =            302
    Total Points           =          22348
    Total Blocks           =            213
    Max Points             =            252
    Max Functions          =              8
    Weights Tolerance      =       1.00E-15

   => Loading Basis Set <=

    Name: (DEF2-SVPD AUX)
    Role: JKFIT
    Keyword: DF_BASIS_SCF
    atoms 1 entry H          line    18 file /opt/miniconda3/envs/rsfff/share/psi4/basis/def2-universal-jkfit.gbs 

  ==> Integral Setup <==

  DFHelper Memory: AOs need 0.000 GiB; user supplied 5.583 GiB. 
  SCF_SUBTYPE=INCORE selected. In-core MEM_DF algorithm will be used.
  Using in-core AOs.

  ==> MemDFJK: Density-Fitted J/K Matrices <==

    J tasked:                   Yes
    K tasked:                   Yes
    wK tasked:                   No
    OpenMP threads:              14
    Memory [MiB]:              5716
    Algorithm:                 Core
    Schwarz Cutoff:           1E-12
    Mask sparsity (%):       0.0000
    Fitting Condition:        1E-10

   => Auxiliary Basis Set <=

  Basis Set: (DEF2-SVPD AUX)
    Blend: DEF2-UNIVERSAL-JKFIT
    Number of shells: 6
    Number of basis functions: 18
    Number of Cartesian functions: 20
    Spherical Harmonics?: true
    Max angular momentum: 2

  Cached 100.0% of DFT collocation blocks in 0.005 [GiB].

  Minimum eigenvalue in the overlap matrix is 3.1520017525E-01.
  Reciprocal condition number of the overlap matrix is 1.8708464390E-01.
    Using symmetric orthogonalization.

  ==> Pre-Iterations <==

  SCF Guess: Core (One-Electron) Hamiltonian.

   -------------------------------------------------------
    Irrep   Nso     Nmo     Nalpha   Nbeta   Ndocc  Nsocc
   -------------------------------------------------------
     A          8       8       1       0       0       1
   -------------------------------------------------------
    Total       8       8       1       0       0       1
   -------------------------------------------------------

  ==> Iterations <==

                           Total Energy        Delta E     RMS |[F,P]|

   @DF-UKS iter   1:    -0.50130645796810   -5.01306e-01   2.93589e-04 DIIS/ADIIS
   @DF-UKS iter   2:    -0.50131411380473   -7.65584e-06   7.54971e-06 DIIS
   @DF-UKS iter   3:    -0.50131411887059   -5.06586e-09   1.19577e-09 DIIS
   @DF-UKS iter   4:    -0.50131411887059    4.44089e-16   9.71899e-14 DIIS
  Energy and wave function converged.


  ==> Post-Iterations <==

   Electrons on quadrature grid:
      Nalpha   =    1.0000000000 ; deviation = 2.787e-12
      Nbeta    =    0.0000000000 ; deviation = 0.000e+00
      Ntotal   =    1.0000000000 ; deviation = 2.787e-12 

   @Spin Contamination Metric:   0.000000000E+00
   @S^2 Expected:                7.500000000E-01
   @S^2 Observed:                7.500000000E-01
   @S   Expected:                5.000000000E-01
   @S   Observed:                5.000000000E-01

    Orbital Energies [Eh]
    ---------------------

    Alpha Occupied:                                                       

       1A     -0.319606  

    Alpha Virtual:                                                        

       2A      0.149578     3A      0.149578     4A      0.149578  
       5A      0.419608     6A      1.560199     7A      1.560199  
       8A      1.560199  

    Beta Occupied:                                                        

    

    Beta Virtual:                                                         

       1A     -0.015658     2A      0.221508     3A      0.221508  
       4A      0.221508     5A      0.661816     6A      1.806741  
       7A      1.806741     8A      1.806741  

    Final Occupation by Irrep:
              A 
    DOCC [     0 ]
    SOCC [     1 ]
    NA   [     1 ]
    NB   [     0 ]

  @DF-UKS Final Energy:    -0.50131411887059

   => Energetics <=

    Nuclear Repulsion Energy =              0.0000000000000000
    One-Electron Energy =                  -0.4992711608966970
    Two-Electron Energy =                   0.2490979554525656
    DFT Exchange-Correlation Energy =      -0.2511409134264569
    Empirical Dispersion Energy =           0.0000000000000000
    VV10 Nonlocal Energy =                  0.0000000000000000
    Total Energy =                         -0.5013141188705883

  UHF NO Occupations:
  HONO-0 :    1  A 1.0000000
  LUNO+0 :    2  A 0.0000000
  LUNO+1 :    3  A 0.0000000
  LUNO+2 :    4  A 0.0000000
  LUNO+3 :    5  A 0.0000000


Computation Completed


Properties will be evaluated at   0.000000,   0.000000,   0.000000 [a0]

Properties computed using the SCF density matrix


 Multipole Moments:

 ------------------------------------------------------------------------------------
     Multipole            Electronic (a.u.)      Nuclear  (a.u.)        Total (a.u.)
 ------------------------------------------------------------------------------------

 L = 1.  Multiply by 2.5417464519 to convert [e a0] to [Debye]
 Dipole X            :         -0.0000000            0.0000000           -0.0000000
 Dipole Y            :         -0.0000000            0.0000000           -0.0000000
 Dipole Z            :          0.0000000            0.0000000            0.0000000
 Magnitude           :                                                    0.0000000

 ------------------------------------------------------------------------------------

*** tstop() called on PNNL-KM3X724WWL at Sun Jul 19 13:38:32 2026
Module time:
	user time   =       0.29 seconds =       0.00 minutes
	system time =       0.13 seconds =       0.00 minutes
	total time  =          3 seconds =       0.05 minutes
Total time:
	user time   =       0.29 seconds =       0.00 minutes
	system time =       0.13 seconds =       0.00 minutes
	total time  =          3 seconds =       0.05 minutes

Scratch directory: /tmp/
   => Libint2 <=

    Primary   basis highest AM E, G, H:  7, 6, 3
    Auxiliary basis highest AM E, G, H:  7, 7, 4
    Onebody   basis highest AM E, G, H:  -, -, -
    Solid Harmonics ordering:            Gaussian

*** tstart() called on PNNL-KM3X724WWL
*** at Sun Jul 19 13:38:32 2026

   => Loading Basis Set <=

    Name: DEF2-SVPD
    Role: ORBITAL
    Keyword: BASIS
    atoms 1 entry O          line   149 file /opt/miniconda3/envs/rsfff/share/psi4/basis/def2-svpd.gbs 


         ---------------------------------------------------------
                                   SCF
               by Justin Turney, Rob Parrish, Andy Simmonett
                          and Daniel G. A. Smith
                              UKS Reference
                       14 Threads,   7629 MiB Core
         ---------------------------------------------------------

  ==> Geometry <==

    Molecular point group: c1
    Geometry (in Angstrom), charge = 0, multiplicity = 3:

       Center              X                  Y                   Z               Mass       
    ------------   -----------------  -----------------  -----------------  -----------------
         O            0.000000000000     0.000000000000     0.000000000000    15.994914619570

  Running in c1 symmetry.

  Rotational constants: A = ************  B = ************  C = ************ [cm^-1]
  Rotational constants: A = ************  B = ************  C = ************ [MHz]
  Nuclear repulsion =    0.000000000000000

  Charge       = 0
  Multiplicity = 3
  Electrons    = 8
  Nalpha       = 5
  Nbeta        = 3

  ==> Algorithm <==

  SCF Algorithm Type is DF.
  DIIS enabled.
  MOM disabled.
  Fractional occupation disabled.
  Guess Type is CORE.
  Energy threshold   = 1.00e-09
  Density threshold  = 1.00e-09
  Integral threshold = 1.00e-12

  ==> Primary Basis <==

  Basis Set: DEF2-SVPD
    Blend: DEF2-SVPD
    Number of shells: 9
    Number of basis functions: 23
    Number of Cartesian functions: 25
    Spherical Harmonics?: true
    Max angular momentum: 2

  ==> DFT Potential <==

   => LibXC <=

    Version 7.0.0
    S. Lehtola, C. Steigemann, M. J.T. Oliveira, and M. A.L. Marques.,  SoftwareX 7, 1–5 (2018) (10.1016/j.softx.2017.11.002)

   => Composite Functional: B3LYP <= 

    B3LYP Hyb-GGA Exchange-Correlation Functional

    P. J. Stephens, F. J. Devlin, C. F. Chabalowski, and M. J. Frisch.,  J. Phys. Chem. 98, 11623 (1994) (10.1021/j100096a001)

    Deriv               =              1
    GGA                 =           TRUE
    Meta                =          FALSE

    Exchange Hybrid     =           TRUE
    MP2 Hybrid          =          FALSE

   => Exchange Functionals <=

    0.0800   Slater exchange
    0.7200         Becke 88

   => Exact (HF) Exchange <=

    0.2000               HF 

   => Correlation Functionals <=

    0.1900   Vosko, Wilk & Nusair (VWN5_RPA)
    0.8100   Lee, Yang & Parr

   => LibXC Density Thresholds  <==

    XC_HYB_GGA_XC_B3LYP:  1.00E-15 

   => Molecular Quadrature <=

    Radial Scheme          =       TREUTLER
    Pruning Scheme         =           NONE
    Nuclear Scheme         =       TREUTLER

    Blocking Scheme        =         OCTREE
    BS radius alpha        =              1
    Pruning alpha          =              1
    Radial Points          =             75
    Spherical Points       =            302
    Total Points           =          22348
    Total Blocks           =            224
    Max Points             =            252
    Max Functions          =             23
    Weights Tolerance      =       1.00E-15

   => Loading Basis Set <=

    Name: (DEF2-SVPD AUX)
    Role: JKFIT
    Keyword: DF_BASIS_SCF
    atoms 1 entry O          line   318 file /opt/miniconda3/envs/rsfff/share/psi4/basis/def2-universal-jkfit.gbs 

  ==> Integral Setup <==

  DFHelper Memory: AOs need 0.001 GiB; user supplied 5.573 GiB. 
  SCF_SUBTYPE=INCORE selected. In-core MEM_DF algorithm will be used.
  Using in-core AOs.

  ==> MemDFJK: Density-Fitted J/K Matrices <==

    J tasked:                   Yes
    K tasked:                   Yes
    wK tasked:                   No
    OpenMP threads:              14
    Memory [MiB]:              5707
    Algorithm:                 Core
    Schwarz Cutoff:           1E-12
    Mask sparsity (%):       0.0000
    Fitting Condition:        1E-10

   => Auxiliary Basis Set <=

  Basis Set: (DEF2-SVPD AUX)
    Blend: DEF2-UNIVERSAL-JKFIT
    Number of shells: 25
    Number of basis functions: 77
    Number of Cartesian functions: 93
    Spherical Harmonics?: true
    Max angular momentum: 4

  Cached 100.0% of DFT collocation blocks in 0.015 [GiB].

  Minimum eigenvalue in the overlap matrix is 8.0241971007E-02.
  Reciprocal condition number of the overlap matrix is 3.3278560532E-02.
    Using symmetric orthogonalization.

  ==> Pre-Iterations <==

  SCF Guess: Core (One-Electron) Hamiltonian.

   -------------------------------------------------------
    Irrep   Nso     Nmo     Nalpha   Nbeta   Ndocc  Nsocc
   -------------------------------------------------------
     A         23      23       5       3       3       2
   -------------------------------------------------------
    Total      23      23       5       3       3       2
   -------------------------------------------------------

  ==> Iterations <==

                           Total Energy        Delta E     RMS |[F,P]|

   @DF-UKS iter   1:   -72.31942346637905   -7.23194e+01   7.89006e-02 DIIS/ADIIS
   @DF-UKS iter   2:   -71.25968393026483    1.05974e+00   9.52922e-02 DIIS/ADIIS
   @DF-UKS iter   3:   -75.00261823042801   -3.74293e+00   4.29134e-03 DIIS/ADIIS
   @DF-UKS iter   4:   -75.00908157042413   -6.46334e-03   7.05822e-04 DIIS/ADIIS
   @DF-UKS iter   5:   -75.00923550482392   -1.53934e-04   1.30424e-04 DIIS/ADIIS
   @DF-UKS iter   6:   -75.00924015168525   -4.64686e-06   5.29984e-06 DIIS
   @DF-UKS iter   7:   -75.00924016441394   -1.27287e-08   8.44458e-07 DIIS
   @DF-UKS iter   8:   -75.00924016464826   -2.34323e-10   5.79997e-08 DIIS
   @DF-UKS iter   9:   -75.00924016465147   -3.21165e-12   2.29235e-08 DIIS
   @DF-UKS iter  10:   -75.00924016465390   -2.43006e-12   2.28222e-08 DIIS
   @DF-UKS iter  11:   -75.00924016465623   -2.33058e-12   2.28211e-08 DIIS
   @DF-UKS iter  12:   -75.00924016502775   -3.71514e-10   2.28252e-08 DIIS
   @DF-UKS iter  13:   -75.00924016691708   -1.88933e-09   4.19296e-08 DIIS
   @DF-UKS iter  14:   -75.00924017542630   -8.50922e-09   5.34193e-06 DIIS
   @DF-UKS iter  15:   -75.00924017718502   -1.75872e-09   2.24504e-06 DIIS
   @DF-UKS iter  16:   -75.00924012979161    4.73934e-08   1.42016e-05 DIIS
   @DF-UKS iter  17:   -75.00924014524495   -1.54533e-08   1.21045e-05 DIIS
   @DF-UKS iter  18:   -75.00924014583262   -5.87676e-10   1.20167e-05 DIIS
   @DF-UKS iter  19:   -75.00924014638349   -5.50870e-10   1.19337e-05 DIIS
   @DF-UKS iter  20:   -75.00924015023953   -3.85604e-09   1.13331e-05 DIIS
   @DF-UKS iter  21:   -75.00924014615261    4.08693e-09   1.19681e-05 DIIS
   @DF-UKS iter  22:   -75.00924017410836   -2.79557e-08   5.86909e-06 DIIS
   @DF-UKS iter  23:   -75.00924017345515    6.53202e-10   6.13728e-06 DIIS
   @DF-UKS iter  24:   -75.00924017153447    1.92068e-09   3.99710e-07 DIIS
   @DF-UKS iter  25:   -75.00924017119746    3.37010e-10   5.19769e-07 DIIS
   @DF-UKS iter  26:   -75.00924018020122   -9.00376e-09   9.05122e-07 DIIS
   @DF-UKS iter  27:   -75.00924018127867   -1.07745e-09   4.12651e-06 DIIS
   @DF-UKS iter  28:   -75.00924018542543   -4.14676e-09   7.61932e-07 DIIS
   @DF-UKS iter  29:   -75.00924017974343    5.68200e-09   4.45926e-06 DIIS
   @DF-UKS iter  30:   -75.00924016164925    1.80942e-08   9.05803e-06 DIIS
   @DF-UKS iter  31:   -75.00924017723749   -1.55882e-08   5.37000e-06 DIIS
   @DF-UKS iter  32:   -75.00924017734945   -1.11967e-10   5.31818e-06 DIIS
   @DF-UKS iter  33:   -75.00924017651027    8.39179e-10   5.57650e-06 DIIS
   @DF-UKS iter  34:   -75.00924017705150   -5.41220e-10   5.40289e-06 DIIS
   @DF-UKS iter  35:   -75.00924017965363   -2.60214e-09   4.50132e-06 DIIS
   @DF-UKS iter  36:   -75.00924018598377   -6.33014e-09   1.53055e-08 DIIS
   @DF-UKS iter  37:   -75.00924018572002    2.63753e-10   1.01253e-08 DIIS
   @DF-UKS iter  38:   -75.00924018576217   -4.21494e-11   8.11483e-09 DIIS
   @DF-UKS iter  39:   -75.00924018573117    3.09939e-11   9.17338e-09 DIIS
   @DF-UKS iter  40:   -75.00924018578303   -5.18554e-11   9.72793e-09 DIIS
   @DF-UKS iter  41:   -75.00924018578094    2.08900e-12   9.43724e-09 DIIS
   @DF-UKS iter  42:   -75.00924018522706    5.53882e-10   7.93756e-08 DIIS
   @DF-UKS iter  43:   -75.00924018514119    8.58620e-11   9.77912e-08 DIIS
   @DF-UKS iter  44:   -75.00924018548446   -3.43263e-10   1.83513e-07 DIIS
   @DF-UKS iter  45:   -75.00924018551446   -2.99991e-11   2.07486e-07 DIIS
   @DF-UKS iter  46:   -75.00924018544430    7.01590e-11   3.04734e-07 DIIS
   @DF-UKS iter  47:   -75.00924018127633    4.16797e-09   1.90987e-06 DIIS
   @DF-UKS iter  48:   -75.00924018183815   -5.61826e-10   1.56424e-06 DIIS
   @DF-UKS iter  49:   -75.00924017878788    3.05027e-09   3.37913e-06 DIIS
   @DF-UKS iter  50:   -75.00924018239083   -3.60295e-09   1.20316e-06 DIIS
   @DF-UKS iter  51:   -75.00924018228703    1.03796e-10   1.25611e-06 DIIS
   @DF-UKS iter  52:   -75.00924018314808   -8.61050e-10   6.94870e-07 DIIS
   @DF-UKS iter  53:   -75.00924018294472    2.03357e-10   9.18042e-07 DIIS
   @DF-UKS iter  54:   -75.00924018053720    2.40752e-09   2.31107e-06 DIIS
   @DF-UKS iter  55:   -75.00924018302889   -2.49169e-09   3.36936e-07 DIIS
   @DF-UKS iter  56:   -75.00924018199231    1.03658e-09   5.56635e-07 DIIS
   @DF-UKS iter  57:   -75.00924018189943    9.28821e-11   1.89065e-07 DIIS
   @DF-UKS iter  58:   -75.00924018183423    6.51994e-11   2.27861e-07 DIIS
   @DF-UKS iter  59:   -75.00924018187756   -4.33289e-11   3.39557e-07 DIIS
   @DF-UKS iter  60:   -75.00924018189713   -1.95683e-11   1.15541e-07 DIIS
   @DF-UKS iter  61:   -75.00924018193548   -3.83551e-11   1.42650e-07 DIIS
   @DF-UKS iter  62:   -75.00924018194142   -5.94014e-12   6.05622e-08 DIIS
   @DF-UKS iter  63:   -75.00924018194257   -1.15108e-12   7.54281e-09 DIIS
   @DF-UKS iter  64:   -75.00924018194254    2.84217e-14   4.06885e-09 DIIS
   @DF-UKS iter  65:   -75.00924018194254    0.00000e+00   3.47140e-09 DIIS
   @DF-UKS iter  66:   -75.00924018194253    1.42109e-14   2.26716e-10 DIIS
  Energy and wave function converged.


  ==> Post-Iterations <==

   Electrons on quadrature grid:
      Nalpha   =    5.0000000000 ; deviation = -5.584e-12
      Nbeta    =    3.0000000000 ; deviation = -5.560e-12
      Ntotal   =    8.0000000000 ; deviation = -1.114e-11 

   @Spin Contamination Metric:   3.773190570E-03
   @S^2 Expected:                2.000000000E+00
   @S^2 Observed:                2.003773191E+00
   @S   Expected:                1.000000000E+00
   @S   Observed:                1.000000000E+00

    Orbital Energies [Eh]
    ---------------------

    Alpha Occupied:                                                       

       1A    -19.294560     2A     -1.008435     3A     -0.469303  
       4A     -0.469303     5A     -0.394123  

    Alpha Virtual:                                                        

       6A      0.071760     7A      0.113911     8A      0.113911  
       9A      0.119332    10A      0.416898    11A      0.416898  
      12A      0.427218    13A      0.427218    14A      0.431876  
      15A      0.991091    16A      0.991091    17A      1.035439  
      18A      1.067085    19A      2.626159    20A      2.626159  
      21A      2.681583    22A      2.681583    23A      2.701232  

    Beta Occupied:                                                        

       1A    -19.242961     2A     -0.850957     3A     -0.341438  

    Beta Virtual:                                                         

       4A     -0.192319     5A     -0.192318     6A      0.084362  
       7A      0.123155     8A      0.137471     9A      0.137506  
      10A      0.436912    11A      0.436914    12A      0.440569  
      13A      0.441414    14A      0.441424    15A      1.063423  
      16A      1.095772    17A      1.095779    18A      1.131856  
      19A      2.770435    20A      2.770435    21A      2.778008  
      22A      2.794631    23A      2.794632  

    Final Occupation by Irrep:
              A 
    DOCC [     3 ]
    SOCC [     2 ]
    NA   [     5 ]
    NB   [     3 ]

  @DF-UKS Final Energy:   -75.00924018194253

   => Energetics <=

    Nuclear Repulsion Energy =              0.0000000000000000
    One-Electron Energy =                -103.0413638368963234
    Two-Electron Energy =                  34.8555302679743235
    DFT Exchange-Correlation Energy =      -6.8234066130205440
    Empirical Dispersion Energy =           0.0000000000000000
    VV10 Nonlocal Energy =                  0.0000000000000000
    Total Energy =                        -75.0092401819425305

  UHF NO Occupations:
  HONO-2 :    3  A 1.9988743
  HONO-1 :    4  A 1.0000000
  HONO-0 :    5  A 1.0000000
  LUNO+0 :    6  A 0.0011257
  LUNO+1 :    7  A 0.0007616
  LUNO+2 :    8  A 0.0000002
  LUNO+3 :    9  A 0.0000000


Computation Completed


Properties will be evaluated at   0.000000,   0.000000,   0.000000 [a0]

Properties computed using the SCF density matrix


 Multipole Moments:

 ------------------------------------------------------------------------------------
     Multipole            Electronic (a.u.)      Nuclear  (a.u.)        Total (a.u.)
 ------------------------------------------------------------------------------------

 L = 1.  Multiply by 2.5417464519 to convert [e a0] to [Debye]
 Dipole X            :         -0.0000000            0.0000000           -0.0000000
 Dipole Y            :          0.0000000            0.0000000            0.0000000
 Dipole Z            :         -0.0000000            0.0000000           -0.0000000
 Magnitude           :                                                    0.0000000

 ------------------------------------------------------------------------------------

*** tstop() called on PNNL-KM3X724WWL at Sun Jul 19 13:38:32 2026
Module time:
	user time   =       2.39 seconds =       0.04 minutes
	system time =       0.39 seconds =       0.01 minutes
	total time  =          0 seconds =       0.00 minutes
Total time:
	user time   =       2.70 seconds =       0.05 minutes
	system time =       0.52 seconds =       0.01 minutes
	total time  =          3 seconds =       0.05 minutes
