5
Properties=species:S:1:pos:R:3:forces:R:3 energy=-4.045938824607e+01 dipole="4.1545474242e-02 -3.8014642166e-02 -2.9051009440e-02" quadrupole="-6.2172829217e+00 -2.2532523553e-01 -3.2579772141e-01 -2.2532523553e-01 -6.8346922222e+00 -2.1328091973e-01 -3.2579772141e-01 -2.1328091973e-01 -6.0323665863e+00" polarizability="1.5753701636e+01 -3.9915718005e-01 -1.4227547911e-01 -3.9915742836e-01 1.8094179240e+01 7.6065463457e-01 -1.4227796211e-01 7.6065298464e-01 1.7821673578e+01" dipole_derivatives="-1.0458752237e-01 -8.8141403776e-03 5.4359411016e-03 -2.2270861476e-02 -3.4848358139e-02 -1.5623498378e-02 -1.1566461352e-02 -1.3538581965e-02 -6.0280181790e-02 -5.4186928195e-02 -1.4133110704e-02 -7.6490445743e-02 1.5111109971e-02 1.0352023391e-01 4.1616993808e-02 -6.4351752312e-02 1.9235339345e-02 9.3763252753e-03 3.0435303142e-02 4.4580590598e-03 2.4595563432e-02 5.4313864029e-04 8.3033409090e-02 2.2415308821e-02 5.1898779289e-02 1.8453981496e-02 5.1867380971e-02 6.0785411162e-02 -5.7343529713e-03 1.6821609390e-02 8.9485596053e-03 -1.7518567291e-02 9.7593590036e-02 8.8936583026e-03 1.3501419638e-01 2.9641988241e-02 6.7560043538e-02 2.4224247572e-02 2.9644076337e-02 -2.3274036040e-03 -1.3420205858e-01 -1.4602091799e-01 1.5135122792e-02 -1.5917998588e-01 -3.0610864680e-02" charge=0 multiplicity=1 method=b3lyp basis=def2-svpd config_type=ch4 sample_index=0 temperature=500.0 units=atomic
C        -0.0247817355       0.0239114779       0.0353647465   6.378418518938e-02  -2.840981726538e-02  -1.301079670096e-01
H         0.8857823480      -0.1555210694       0.5068776295   3.770777902573e-02   1.299017666709e-02   3.091100607491e-02
H        -0.8287040991      -0.0384771171       0.6348136354  -6.477494084738e-02  -3.840317939495e-03   3.615507561721e-02
H         0.0604887636       0.7586655359      -0.8178838066  -7.180048247223e-03   8.705149906363e-03   3.172294402638e-02
H         0.1775048659      -0.8493772205      -0.7448894361  -2.953748193713e-02   1.054839960521e-02   3.131289232939e-02
5
Properties=species:S:1:pos:R:3:forces:R:3 energy=-4.046320007086e+01 dipole="2.4870237676e-02 -4.4826934290e-02 2.8029546893e-02" quadrupole="-6.4037204251e+00 4.5300306519e-01 -2.3208659830e-03 4.5300306519e-01 -5.9359590985e+00 -2.5738617636e-01 -2.3208659830e-03 -2.5738617636e-01 -6.5690150637e+00" polarizability="1.7036377862e+01 6.9714067874e-01 -7.8209403518e-01 6.9714070452e-01 1.6414605268e+01 -7.9536360677e-01 -7.8209387949e-01 -7.9536403564e-01 1.6391531287e+01" dipole_derivatives="-7.2013539399e-02 -1.9743430926e-03 -2.5843065259e-02 -1.1813545842e-02 -8.8524917446e-02 -5.5783089105e-02 -3.5394973687e-02 -8.0326765984e-02 -5.4344397130e-02 -5.9936968274e-02 3.7173745773e-03 -1.0359650262e-01 7.8392354579e-03 6.1819083366e-02 2.5985057924e-02 -1.0047191802e-01 2.5133191232e-02 8.3221164643e-04 -7.5329122777e-02 8.9515206998e-03 1.1438832723e-01 -2.6349640296e-02 7.3747790244e-02 4.3646369552e-02 1.3417597250e-01 1.9525559316e-02 -1.5316795481e-02 9.6231461873e-02 -1.6641864406e-02 2.1569574751e-02 1.1443455895e-02 -4.3435144774e-03 7.5697772354e-02 2.1210843705e-03 6.9728526747e-02 4.0116479770e-02 1.1104634196e-01 5.9463872640e-03 -6.5206302665e-03 1.8880656208e-02 -4.2698804316e-02 -8.9545912085e-02 -4.3320319712e-04 -3.4060891119e-02 2.8713504779e-02" charge=0 multiplicity=1 method=b3lyp basis=def2-svpd config_type=ch4 sample_index=1 temperature=500.0 units=atomic
C         0.0023258077       0.0089705691      -0.0228355643  -3.077784717947e-02   6.217994522409e-02   4.841166491298e-02
H         0.8351843216       0.0256043364       0.6122154682   3.197656165093e-02  -6.731904387385e-03   2.554248684279e-02
H        -0.8837958839      -0.1973110062       0.6613718371   8.246062464387e-03   3.384543077444e-02  -6.249141176513e-03
H         0.1219052700       0.9663907734      -0.5844804587  -2.023913942451e-02  -1.795313092924e-02  -3.349296483041e-03
H        -0.1009867019      -0.9014951332      -0.4172076945   1.079432943034e-02  -7.134156529838e-02  -6.435593038853e-02
5
Properties=species:S:1:pos:R:3:forces:R:3 energy=-4.047593015344e+01 dipole="2.0222750317e-02 3.0236355512e-02 1.1406553751e-02" quadrupole="-6.5292511311e+00 -2.7346252552e-01 -1.5554082082e-03 -2.7346252552e-01 -6.3742827340e+00 2.3671036084e-01 -1.5554082082e-03 2.3671036084e-01 -6.0678546044e+00" polarizability="1.6374660097e+01 -4.4790896626e-01 -7.5971578358e-01 -4.4790895491e-01 1.6985255942e+01 -2.6015328095e-01 -7.5971560043e-01 -2.6015319523e-01 1.7179421080e+01" dipole_derivatives="-5.4716837661e-02 -8.4436002356e-03 -4.5720307244e-02 -4.8748194315e-03 -1.7791339946e-02 -6.9736877992e-03 -3.5474139667e-02 -3.5637807170e-03 -4.2858959916e-02 -4.2456347971e-02 2.2372469518e-03 -6.9821938516e-02 1.4270447371e-05 6.1580016043e-02 -1.3717581618e-02 -8.8447251048e-02 -1.3545365036e-02 1.9103974562e-02 -5.5534597394e-02 -1.2060245880e-02 9.6376531041e-02 2.0709035725e-02 7.4271651777e-02 -2.9783337968e-02 1.2093867607e-01 -5.0677056317e-03 -1.4350444056e-03 7.7001628505e-02 -1.2574028882e-03 1.3253945949e-03 -8.1461095628e-03 -1.0670661259e-01 1.0957630056e-01 4.6201478955e-03 1.0328781003e-01 -1.1990636395e-02 7.5702145139e-02 1.9523583034e-02 1.7834597562e-02 -7.6995422763e-03 -1.1352824327e-02 -5.9102572942e-02 -1.6410799086e-03 -8.1107668867e-02 3.7182665679e-02" charge=0 multiplicity=1 method=b3lyp basis=def2-svpd config_type=ch4 sample_index=2 temperature=500.0 units=atomic
C         0.0055117909      -0.0230324204      -0.0017173186  -6.181753595236e-02   5.168615972525e-02  -2.243270870178e-02
H         0.7877008147       0.0220743890       0.6492634362   5.915269443576e-02   3.119446300319e-03   3.148793065040e-02
H        -0.8581309013       0.1706161910       0.7024682708   1.680773582148e-03  -2.489458374188e-02  -1.838614285645e-02
H        -0.0718640039       0.9147843725      -0.6263653848   1.220276460103e-02  -1.152384234294e-02   8.195663539763e-03
H         0.0766661404      -0.8332318688      -0.7049185033  -1.121717967717e-02  -1.838690493890e-02   1.134941008881e-03
5
Properties=species:S:1:pos:R:3:forces:R:3 energy=-4.045747469853e+01 dipole="-1.2769572557e-02 -4.0036486315e-02 -1.1185987734e-02" quadrupole="-6.2295630401e+00 2.0891963819e-01 4.4446646286e-02 2.0891963819e-01 -6.5187475540e+00 -1.1102699350e-01 4.4446646286e-02 -1.1102699350e-01 -6.0327678898e+00" polarizability="1.4908073499e+01 1.8575856393e-01 6.7627960691e-01 1.8575809248e-01 1.6947885853e+01 -4.7205254637e-01 6.7627979128e-01 -4.7205318838e-01 1.6555299155e+01" dipole_derivatives="-1.1016763191e-01 -9.6993889701e-03 6.3247926257e-02 3.4646222528e-03 -9.2829122220e-03 -5.8315495107e-02 5.8849684684e-02 -3.8902539526e-02 -5.0740356213e-02 -2.3781362830e-02 3.5452013085e-03 -7.6521443153e-02 6.8496851396e-03 7.7007769988e-02 1.9755798046e-02 -9.0541271517e-02 1.4501226998e-02 1.3724808790e-02 -7.5618898197e-03 1.7859358701e-02 4.0103564621e-02 -1.6518982178e-02 8.2479008351e-02 3.4417440308e-02 4.8697172162e-02 9.0740646956e-03 3.1262567389e-02 6.7618145423e-02 3.3118025437e-03 -8.9427784550e-03 2.4510642333e-03 -5.7934506239e-02 1.1015129576e-01 -1.0537990971e-02 1.3016632700e-01 1.7619874723e-03 7.3894590115e-02 -1.5015925936e-02 -1.7896862125e-02 3.7523071016e-03 -9.2267260816e-02 -1.0600214874e-01 -6.4761922898e-03 -1.1483476981e-01 3.9916122642e-03" charge=0 multiplicity=1 method=b3lyp basis=def2-svpd config_type=ch4 sample_index=3 temperature=500.0 units=atomic
C        -0.0070350297       0.0050123164       0.0242685971   1.271357930441e-01   3.786078910652e-02  -1.420359935446e-01
H         0.8760553034       0.0057940692       0.6196765900   1.974298652110e-02  -3.130305295585e-03   8.888840773412e-03
H        -0.7765656999      -0.1032308215       0.5382148709  -1.493193504632e-01  -1.323401070398e-03   9.841177362659e-02
H         0.0466447786       0.8580180678      -0.7712157421  -9.352646734881e-03  -1.499119770466e-02   3.669404801496e-02
H        -0.0623694885      -0.8202621083      -0.6756377472   1.179361927262e-02  -1.841552374307e-02  -1.959359724705e-03
5
Properties=species:S:1:pos:R:3:forces:R:3 energy=-4.045174986917e+01 dipole="2.2808599658e-03 -8.7008798285e-03 2.0530018850e-02" quadrupole="-6.0331834835e+00 3.0874341581e-01 -1.6875928341e-02 3.0874341581e-01 -5.9276779149e+00 -3.0315060921e-02 -1.6875928341e-02 -3.0315060921e-02 -6.4090069637e+00" polarizability="1.4215793404e+01 2.7827596968e-01 2.1693481345e-01 2.7827629139e-01 1.4991361074e+01 -1.3739529656e-01 2.1693157418e-01 -1.3739474909e-01 1.4210148629e+01" dipole_derivatives="-1.5982160653e-01 -1.4881725084e-02 1.4564959750e-02 -7.8073159508e-03 -9.3907335230e-02 -1.5086707160e-02 1.4785486310e-02 -1.5325571798e-02 -1.1990989343e-01 -3.2334962046e-02 8.8625610835e-03 -9.9035211601e-02 1.1447858087e-04 9.0971642830e-02 -1.5330556247e-03 -9.4728548366e-02 4.9254327074e-03 2.1254979774e-02 -1.4466176349e-02 1.1660968737e-02 8.5553914349e-02 -6.2553150839e-03 9.1760425700e-02 1.5430506946e-02 8.0217098213e-02 2.1092668235e-03 3.2184643242e-02 1.0318858624e-01 -1.6626487718e-03 7.6408064811e-03 7.7490213636e-03 -4.1715919076e-02 9.7888787506e-02 1.1590392693e-03 7.8950964470e-02 3.3255263040e-02 1.0343104005e-01 -3.9786124674e-03 -8.7241865479e-03 6.2018285418e-03 -4.7104883310e-02 -9.6703032744e-02 -1.4362998706e-03 -7.0659402742e-02 3.3218806025e-02" charge=0 multiplicity=1 method=b3lyp basis=def2-svpd config_type=ch4 sample_index=4 temperature=500.0 units=atomic
C        -0.0049791246       0.0003213304      -0.0002722424   4.924429646665e-02   2.849343836767e-02  -5.435579305633e-02
H         0.8407333334       0.0631127236       0.5320506335   6.633830316478e-02  -8.906030348163e-03   5.523486273472e-02
H        -0.8026609014      -0.0852714087       0.5201189561  -1.136360188964e-01   7.032340923319e-03   8.673475349866e-02
H         0.0847883887       0.8887619879      -0.5387792905  -1.293042088573e-02   2.978760967061e-02  -3.450229420962e-02
H        -0.0635752367      -0.8704293289      -0.5101487556   1.098468525239e-02  -5.640848675005e-02  -5.311167354696e-02
5
Properties=species:S:1:pos:R:3:forces:R:3 energy=-4.039467058514e+01 dipole="4.4814256414e-03 -5.9653522213e-02 -6.6491089796e-02" quadrupole="-5.9807483410e+00 3.9589640664e-02 -1.2032167202e-01 3.9589640664e-02 -6.4885148691e+00 -9.5643153701e-02 -1.2032167202e-01 -9.5643153701e-02 -6.1374783748e+00" polarizability="1.7015703857e+01 1.0106965359e-01 2.4496965832e-01 1.0106911033e-01 1.4590255455e+01 -1.7411170510e+00 2.4497009325e-01 -1.7411174152e+00 1.5685986403e+01" dipole_derivatives="5.3304331057e-02 1.3694287919e-03 7.2799805398e-03 5.5615467186e-03 -1.7953105160e-01 -1.3823098272e-01 1.2705121366e-02 -1.2580853408e-01 -7.5517907059e-02 -9.6456931389e-02 7.9658280282e-03 -9.8320870928e-02 2.5523909509e-02 9.6969425897e-02 3.4400418931e-02 -6.4903498109e-02 1.7790520228e-02 2.0620129620e-02 -4.8121301127e-02 -1.7270220664e-03 7.3523606384e-02 -2.9252850937e-02 1.0177346715e-01 3.8607774176e-02 4.7073972333e-02 1.8096825946e-02 4.4891912679e-02 5.0275361922e-02 -4.2575836418e-03 1.0941900907e-02 3.6634036791e-03 -2.4761649613e-02 1.1122128144e-01 7.9673415970e-04 1.5348629931e-01 -2.5335597131e-02 4.0997936765e-02 -3.3514964437e-03 6.5745646301e-03 -5.4972155717e-03 5.5487701145e-03 -4.6000265498e-02 4.3250539847e-03 -6.3564514886e-02 3.5340559272e-02" charge=0 multiplicity=1 method=b3lyp basis=def2-svpd config_type=ch4 sample_index=5 temperature=500.0 units=atomic
C        -0.0112308172      -0.0101121849       0.0053631051   1.056763732482e-02   3.308428667090e-01   2.638148273273e-01
H         0.9801057810      -0.0290030959       0.5783513313  -2.858854981455e-02   4.333343540902e-03  -4.303510516840e-03
H        -0.9341410702      -0.0522277438       0.6079052417   8.674408745013e-03   6.728321897782e-03  -5.546934721515e-04
H         0.0554924841       0.8303185231      -0.7250552122  -7.554282730328e-03   6.752980851453e-03   1.799172823398e-02
H         0.0322662214      -0.6286836300      -0.5250589339   1.690089453002e-02  -3.486564074696e-01  -2.769491254874e-01
5
Properties=species:S:1:pos:R:3:forces:R:3 energy=-4.047251644245e+01 dipole="3.5727268545e-02 1.9723171189e-02 4.3697747936e-03" quadrupole="-6.3071877464e+00 -1.7637949962e-01 -2.4007805824e-01 -1.7637949962e-01 -6.2849405036e+00 1.8906214796e-01 -2.4007805824e-01 1.8906214796e-01 -6.3507780635e+00" polarizability="1.7088099967e+01 -1.0014342031e-01 2.1584563146e-01 -1.0014196923e-01 1.6371587649e+01 -7.7453058761e-01 2.1584560820e-01 -7.7452692298e-01 1.6541258943e+01" dipole_derivatives="-1.9169553329e-02 8.8926501080e-03 -1.3883352809e-02 2.0170027312e-02 -6.9476495074e-02 -4.8358186138e-02 -6.5558936869e-03 -4.6192271843e-02 -5.1955797923e-02 -1.1571926358e-01 2.1366317541e-03 -1.1799777507e-01 -2.1814516861e-03 7.5513597768e-02 -8.2939784820e-03 -1.0359303353e-01 -6.7290669067e-03 -1.2256099082e-02 -1.3907637876e-02 -1.3566682807e-02 7.4509165929e-02 5.5249471071e-03 8.1654581264e-02 -1.2403011403e-02 8.6643545876e-02 2.3883286609e-03 3.3692353776e-02 7.1491334756e-02 -1.0353129023e-02 2.5136798534e-02 -5.4687336838e-04 -9.4951509212e-02 1.1653708061e-01 1.5993438335e-02 1.0843807026e-01 -1.3309283239e-02 7.7305569348e-02 1.2892522382e-02 3.2244724577e-02 -2.2966440290e-02 7.2617008251e-03 -4.7481981980e-02 7.5175684577e-03 -5.7906769060e-02 4.3826639147e-02" charge=0 multiplicity=1 method=b3lyp basis=def2-svpd config_type=ch4 sample_index=6 temperature=500.0 units=atomic
C        -0.0222036223      -0.0266122148      -0.0069458306   2.413118204558e-02   1.176851080766e-01   5.922653353162e-02
H         0.9219585692       0.0398544152       0.5859336627  -8.936715585896e-03  -1.611619750961e-03   3.351901193998e-03
H        -0.8580274985       0.1314983378       0.6824601540  -4.950112355010e-03  -1.756975546504e-02  -4.715176298906e-03
H         0.0544021494       0.9398509055      -0.5837248292  -4.880889520738e-03  -1.565671450594e-02   7.843259369520e-04
H         0.1460415064      -0.7943365758      -0.6019661724  -5.365158305598e-03  -8.284702840985e-02  -5.864568140013e-02
5
Properties=species:S:1:pos:R:3:forces:R:3 energy=-4.047662005255e+01 dipole="-3.3573744919e-02 -2.4418535888e-03 2.0268729569e-02" quadrupole="-6.3163657524e+00 1.7506183864e-01 2.2094868844e-02 1.7506183864e-01 -6.0697708557e+00 -4.2680557757e-02 2.2094868844e-02 -4.2680557757e-02 -6.6680057977e+00" polarizability="1.7393811017e+01 2.6112623246e-01 1.1218621054e+00 2.6112623535e-01 1.7693653041e+01 6.3314869293e-02 1.1218621441e+00 6.3314820548e-02 1.6823919134e+01" dipole_derivatives="-2.5668223814e-02 -7.4637636223e-03 6.9127388518e-02 -4.0087105177e-03 5.1222340232e-03 -2.1727897490e-03 7.6512028819e-02 2.3346029476e-03 -7.5449285433e-03 -8.1506731257e-02 2.6426061438e-03 -1.1757662611e-01 -1.8455475959e-03 5.5153723410e-02 -1.7027152276e-04 -1.2176240601e-01 2.9323845925e-03 -2.4127916794e-02 -4.7861977261e-02 8.8286124970e-03 8.4461885601e-02 -3.1022994400e-03 5.9586288129e-02 7.8821271602e-03 6.7078904612e-02 -6.9715536156e-04 5.9760160488e-03 7.7496570520e-02 9.5804255207e-03 -1.3487638947e-02 7.5151139102e-03 -5.1877040053e-02 9.3315015883e-02 -1.1479935200e-02 6.1587252631e-02 1.5786623311e-02 7.7541442231e-02 -1.3584498738e-02 -2.2523570900e-02 1.4397492065e-03 -6.7981934107e-02 -9.8854698070e-02 -1.0344175913e-02 -6.6160945679e-02 9.9102940125e-03" charge=0 multiplicity=1 method=b3lyp basis=def2-svpd config_type=ch4 sample_index=7 temperature=500.0 units=atomic
C        -0.0091828514       0.0029989977      -0.0094168970   8.693759844582e-02  -1.761193708762e-03  -9.535006667819e-03
H         0.9707012220       0.0272901634       0.6535282511  -3.784433817123e-02  -5.586107308094e-03  -1.889688928382e-02
H        -0.8489024147      -0.0559138156       0.5585824070  -5.331491417607e-02   6.342207383947e-03   4.654709165752e-02
H         0.0353665137       0.9687183069      -0.5576059832  -5.272127413748e-03  -1.589865547349e-02  -7.674437415156e-03
H        -0.0478266823      -0.9758032065      -0.5423792960   9.493247038300e-03   1.690420334867e-02  -1.044106732356e-02
5
Properties=species:S:1:pos:R:3:forces:R:3 energy=-4.046666598294e+01 dipole="-2.0963190125e-02 3.3503542824e-02 1.4441715968e-02" quadrupole="-6.4371117046e+00 3.8497952512e-01 1.8408347585e-01 3.8497952512e-01 -6.3791394575e+00 5.7501066902e-02 1.8408347585e-01 5.7501066902e-02 -6.2594498393e+00" polarizability="1.6926304363e+01 6.3289889946e-01 -7.2297620607e-01 6.3289903273e-01 1.7782552314e+01 9.9794822036e-01 -7.2297613812e-01 9.9794895901e-01 1.7525675712e+01" dipole_derivatives="-6.4306809512e-02 -1.1807046254e-02 -5.2955100693e-02 1.1610146161e-02 2.1729351724e-02 6.3064219652e-02 -3.4316089312e-02 5.1103082642e-02 -1.8108194306e-02 3.3188758164e-03 2.0907748158e-02 -4.5077100528e-02 -2.7331508191e-02 5.8590082776e-02 -3.1184111087e-02 -7.4252033990e-02 2.0380844710e-03 3.2902523878e-02 -9.4170322254e-02 1.2210038887e-02 1.1804758531e-01 3.4410288326e-03 6.3449875664e-02 -7.8306313175e-03 1.1969823842e-01 -1.2226698507e-02 -2.4828906427e-02 7.2538159528e-02 -6.1986616319e-03 4.5310857654e-04 1.7853023359e-03 -7.3513807375e-02 7.7230334922e-02 -8.8228411607e-03 6.9560743674e-02 1.1333499611e-02 8.2622678036e-02 -1.5112799997e-02 -2.0462764532e-02 1.0495653848e-02 -7.0258206832e-02 -1.0128477857e-01 -2.3020101391e-03 -1.1047797343e-01 -1.2947441496e-03" charge=0 multiplicity=1 method=b3lyp basis=def2-svpd config_type=ch4 sample_index=8 temperature=500.0 units=atomic
C         0.0264219302       0.0037554745       0.0034392027  -1.103995206966e-01  -6.142230581763e-02  -5.010488238249e-02
H         0.7804294712       0.1235536567       0.6539632834   6.962795931509e-02  -1.159929160379e-02   4.540477724654e-02
H        -0.9248739110      -0.0793613815       0.6357864782   1.799155800486e-02   1.365993856199e-02  -1.298860541280e-02
H         0.0163626924       0.8628889137      -0.6182997480  -8.195605238426e-03   2.261511932195e-02  -1.591851520595e-02
H        -0.1865196490      -0.9517969798      -0.7124000114   3.097490766563e-02   3.674455976724e-02   3.360840340600e-02
5
Properties=species:S:1:pos:R:3:forces:R:3 energy=-4.047427884537e+01 dipole="-1.0730560301e-02 -5.9674065479e-02 -4.5558275403e-03" quadrupole="-6.5406854542e+00 8.9366170602e-02 5.2801582738e-02 8.9366170602e-02 -6.5144354994e+00 -1.8565591071e-01 5.2801582738e-02 -1.8565591071e-01 -5.9224343753e+00" polarizability="1.6703723017e+01 8.7329223763e-02 1.1532316514e-01 8.7329932149e-02 1.6567443791e+01 -1.2018389953e+00 1.1532333179e-01 -1.2018396483e+00 1.7685847117e+01" dipole_derivatives="-1.7029211169e-02 7.0922712764e-04 1.5454732510e-02 -4.9875836045e-04 -2.7779265287e-02 -9.4381833926e-02 1.0425593723e-02 -7.7170608199e-02 -3.0770930685e-02 -5.1265462746e-02 -4.2628310182e-03 -8.2242067435e-02 2.0749676571e-02 6.3861202509e-02 3.4022535603e-02 -1.0458215785e-01 1.6837052099e-02 1.0643091141e-02 -6.5860298263e-02 8.3950758920e-03 8.2212636301e-02 -2.6282367168e-02 6.7799364283e-02 3.8562005270e-02 1.0066972220e-01 1.4705518667e-02 7.7716237777e-03 6.2802507321e-02 1.4460289856e-03 -5.3658821286e-03 3.4334012300e-04 -3.5149227732e-02 8.9795299659e-02 -4.5131831058e-03 1.2145582938e-01 1.2492758925e-03 7.1350515813e-02 -6.2837156389e-03 -1.0063154292e-02 5.6873782785e-03 -6.8727061785e-02 -6.7998304214e-02 -1.9981234733e-03 -7.5826044470e-02 1.1109489669e-02" charge=0 multiplicity=1 method=b3lyp basis=def2-svpd config_type=ch4 sample_index=9 temperature=500.0 units=atomic
C         0.0026858217       0.0048794605      -0.0003899269   7.373610613643e-03   6.858918825992e-02   2.043953486959e-02
H         0.8448844222      -0.0502234683       0.7181060146   5.527340894854e-03   5.428767454468e-03  -1.639486115024e-02
H        -0.8371033554      -0.0970247392       0.6845011336  -1.569243835547e-02   1.292195224807e-02  -4.333129901715e-03
H         0.0035209808       0.8814478140      -0.7825461488  -1.335100708147e-03  -1.883577437243e-02   4.077894033500e-02
H        -0.0432816663      -0.7922985066      -0.6154182063   4.127485982124e-03  -6.810442745669e-02  -4.048955571166e-02
5
Properties=species:S:1:pos:R:3:forces:R:3 energy=-4.047719006565e+01 dipole="1.4303786686e-02 1.7344805825e-02 1.3486141164e-02" quadrupole="-6.3108213204e+00 1.2430815270e-02 -9.6432453675e-03 1.2430815270e-02 -6.3061006397e+00 3.3162013745e-02 -9.6432453675e-03 3.3162013745e-02 -6.1850887859e+00" polarizability="1.5483126652e+01 -8.0843112804e-03 -6.8096887279e-01 -8.0840243166e-03 1.6773482174e+01 4.3352416141e-01 -6.8097072633e-01 4.3352189597e-01 1.6301266932e+01" dipole_derivatives="-7.7684668076e-02 -2.2832329086e-03 -5.0712658142e-02 -7.9293971386e-04 1.2830166826e-02 3.1989978927e-02 -4.8540789305e-02 2.9306827353e-02 -3.4070174491e-02 -2.4061048407e-02 2.8580515592e-03 -6.2415458529e-02 -5.8331692348e-03 6.5110161103e-02 -1.1298019640e-02 -6.9223760130e-02 -5.0752555612e-03 2.0679321285e-02 -4.6750836972e-02 -1.4626053395e-04 9.2597994714e-02 5.6019198299e-03 6.5954809606e-02 -9.8250661062e-03 1.0615232587e-01 -5.4048594823e-03 -6.8023936897e-04 7.6349535612e-02 -7.9111587321e-03 1.0837010947e-02 -8.1757976546e-04 -7.0800596085e-02 8.9382862450e-02 5.7099315564e-03 8.4390230031e-02 1.1669171926e-02 7.2149720855e-02 7.4833987550e-03 9.6932830242e-03 1.8401912900e-03 -7.3095440967e-02 -1.0025579432e-01 5.9027379530e-03 -1.0322070056e-01 2.4014690092e-03" charge=0 multiplicity=1 method=b3lyp basis=def2-svpd config_type=ch4 sample_index=10 temperature=500.0 units=atomic
C         0.0072185340       0.0016247932       0.0073733287  -8.795673517866e-02  -2.881159847676e-02  -7.612447834357e-02
H         0.7947789536       0.0147993561       0.5811818478   9.551578929150e-02  -1.352763929660e-03   6.524540123555e-02
H        -0.8796159666       0.0092598518       0.6403860435  -6.850897810720e-03  -1.297776125814e-03   3.698945389888e-04
H         0.0022122437       0.8682469343      -0.6308310381  -1.137703072797e-03   1.351491714091e-02  -7.751798780539e-03
H        -0.0033250785      -0.9116522766      -0.6785298151   4.291881917997e-04   1.794393137867e-02   1.826039014004e-02
5
Properties=species:S:1:pos:R:3:forces:R:3 energy=-4.047829388028e+01 dipole="-1.5289696626e-02 -1.9850978700e-03 2.5047329195e-02" quadrupole="-6.6009890041e+00 1.4085016382e-01 1.8254115338e-01 1.4085016382e-01 -6.4199327004e+00 -1.2770356304e-02 1.8254115338e-01 -1.2770356304e-02 -6.2837602303e+00" polarizability="1.7894946745e+01 2.6359570607e-01 -5.3886607892e-01 2.6359587635e-01 1.8868846035e+01 -2.4506688616e-02 -5.3886580394e-01 -2.4506869581e-02 1.8691745523e+01" dipole_derivatives="-1.1392468267e-02 -1.0581377104e-03 -2.8525498299e-02 2.8985307045e-03 7.7418712138e-02 -4.2049106038e-03 -2.0958694981e-02 -4.9630193987e-03 2.5796375562e-02 -1.9985845303e-02 4.3869717221e-03 -5.9611232531e-02 -4.6172561656e-03 4.1052094463e-02 -1.4080239320e-03 -9.1836899383e-02 5.0242917183e-03 1.3258740943e-02 -1.0349331627e-01 4.1585513881e-03 1.1384215331e-01 -4.3833384347e-03 4.8056171236e-02 5.3375919668e-03 1.2263917649e-01 -8.2377617715e-04 -3.4485452771e-02 6.4541404493e-02 2.5789188441e-03 -9.2236961013e-03 -4.0153913212e-03 -8.3490404918e-02 8.8008417417e-02 -6.1279027310e-03 8.4968300409e-02 -2.9036977993e-03 7.0336738437e-02 -1.0059530590e-02 -1.6485669393e-02 1.0120932876e-02 -8.3041316270e-02 -8.7738365970e-02 -3.7197535640e-03 -8.4213271731e-02 -1.6727472721e-03" charge=0 multiplicity=1 method=b3lyp basis=def2-svpd config_type=ch4 sample_index=11 temperature=500.0 units=atomic
C         0.0213428845       0.0003968995      -0.0021967309  -6.331294962460e-02  -9.382999786574e-04  -2.719883191383e-02
H         0.8248050918       0.0328453568       0.7124989132   1.899206278538e-02  -4.694766241875e-03  -1.116808028342e-03
H        -0.9245035651      -0.0408397158       0.6738053648   2.288324501371e-02   6.942057049101e-03  -2.146456039520e-02
H        -0.0403765469       0.9548490428      -0.6840562414   4.291016498351e-03  -3.251956733928e-02   2.571305887879e-02
H        -0.1140510488      -0.9515804978      -0.6760919383   1.714974119391e-02   3.121033502937e-02   2.406645912075e-02
5
Properties=species:S:1:pos:R:3:forces:R:3 energy=-4.046701530465e+01 dipole="-1.0039774338e-02 -3.0111740874e-02 3.0202409776e-02" quadrupole="-6.5610381164e+00 -8.0772667576e-03 6.4616723045e-02 -8.0772667576e-03 -6.3161203669e+00 2.8326128403e-03 6.4616723045e-02 2.8326128403e-03 -6.0137722679e+00" polarizability="1.6389018984e+01 -6.0807618268e-02 -1.5899855094e-01 -6.0807440179e-02 1.6395917663e+01 -1.4349354690e+00 -1.5899907262e-01 -1.4349347563e+00 1.7028937345e+01" dipole_derivatives="-3.9632042818e-02 -7.4814098792e-04 -3.4842193275e-03 -4.2679010340e-03 -2.0323973519e-02 -1.0240775554e-01 -1.2738630919e-03 -9.6637472475e-02 -3.3179589684e-02 -3.8547989507e-02 -4.4988116324e-04 -8.5260502106e-02 1.4923311740e-02 6.0788930812e-02 2.0732993528e-02 -1.1188941854e-01 1.1914308229e-02 1.4303024853e-02 -7.2369093999e-02 -1.4323546650e-03 1.0243255680e-01 -1.3044831430e-02 6.2041074976e-02 1.8093327648e-02 1.1977491493e-01 1.1446899074e-02 -3.7647011935e-03 7.1949549371e-02 4.2628653103e-03 -7.4470504239e-03 -1.3286105192e-03 -7.5721268672e-02 1.0428941103e-01 -3.1605203619e-03 1.1160239160e-01 -1.0886041383e-02 7.8596795363e-02 -1.6346911249e-03 -6.2384966491e-03 3.7152650817e-03 -2.6782516781e-02 -4.0712138782e-02 -3.4477671928e-03 -3.8328551540e-02 3.3525853675e-02" charge=0 multiplicity=1 method=b3lyp basis=def2-svpd config_type=ch4 sample_index=12 temperature=500.0 units=atomic
C         0.0076632080      -0.0161839841      -0.0105892771  -1.629219594640e-02   1.456997703090e-01   5.484399634091e-02
H         0.8010377210       0.0067914988       0.7128060609   2.504078181166e-02   1.142380871867e-04  -2.020483325103e-03
H        -0.8328137101       0.0121294333       0.6932325169  -1.232863242755e-02  -3.478182650131e-04  -8.439235077049e-03
H        -0.0324031253       0.9586244214      -0.6947275604   4.674382940096e-03  -3.547180326790e-02   3.067511952923e-02
H        -0.0270653910      -0.7848454273      -0.5852263094  -1.094658044951e-03  -1.099951445711e-01  -7.505893924473e-02
5
Properties=species:S:1:pos:R:3:forces:R:3 energy=-4.046484830986e+01 dipole="-3.4101527037e-02 1.7017423108e-02 -9.2175565094e-03" quadrupole="-6.7969323952e+00 6.9974292319e-02 -4.8292029639e-03 6.9974292319e-02 -6.7453423144e+00 1.8662612434e-01 -4.8292029639e-03 1.8662612434e-01 -5.9510316016e+00" polarizability="1.9173243361e+01 2.3596211188e-01 1.2021071015e+00 2.3596214240e-01 1.8764317926e+01 -8.8629583844e-02 1.2021071723e+00 -8.8628873870e-02 2.0656147254e+01" dipole_derivatives="6.5976765091e-02 9.5175761768e-03 7.2389476323e-02 1.7601420708e-03 3.8896928379e-02 -1.0258793629e-02 5.3930894812e-02 -5.8428602873e-03 3.8052096397e-02 -9.4867641322e-02 5.1234321100e-03 -1.0404708809e-01 -1.4626183697e-02 4.8984345040e-02 -1.7526951871e-02 -1.3090400717e-01 -3.1201805987e-03 -2.9856133423e-02 -6.9553693044e-02 -6.8274748847e-03 6.0920474812e-02 6.6708464535e-03 5.3753983955e-02 -1.1740189864e-02 8.9295425013e-02 -4.7130691520e-03 7.4049661907e-03 4.9433163011e-02 6.1038015285e-03 -1.1466491151e-02 2.5758014182e-03 -1.0607577745e-01 9.8348151081e-02 -7.6518249162e-03 1.1431821450e-01 -2.7939770085e-02 4.9015929804e-02 -1.3919598795e-02 -1.7801977764e-02 3.6170714693e-03 -3.5566351953e-02 -5.8819951807e-02 -4.6703251490e-03 -1.0064459452e-01 1.2340444938e-02" charge=0 multiplicity=1 method=b3lyp basis=def2-svpd config_type=ch4 sample_index=13 temperature=500.0 units=atomic
C        -0.0086782959      -0.0175264413      -0.0030779042   4.106931503993e-02   3.629757062791e-02   5.532354932165e-03
H         0.9428420056       0.0949792406       0.8147490594  -3.885963966364e-02  -1.452112202405e-02  -5.429512167646e-02
H        -0.8383735657       0.0523314734       0.7400911897  -2.447069244968e-03  -5.689518653207e-03  -2.067254481758e-02
H         0.0207479452       0.9137912155      -0.7287275160  -2.935899188802e-03  -2.445151467685e-02   3.430328632471e-02
H        -0.0218854028      -0.8524175959      -0.7894646546   3.172330621063e-03   8.364730856093e-03   3.513301215288e-02
5
Properties=species:S:1:pos:R:3:forces:R:3 energy=-4.046341404997e+01 dipole="1.2509159928e-02 9.9080316680e-03 -4.2013403271e-03" quadrupole="-6.2451984015e+00 -1.0895446437e-01 -1.5260390437e-01 -1.0895446437e-01 -6.9251744894e+00 -2.0309167921e-01 -1.5260390437e-01 -2.0309167921e-01 -6.3803581643e+00" polarizability="1.8359452827e+01 -3.0011304287e-01 -2.6084524580e-01 -3.0011284498e-01 2.0483849039e+01 1.3613014588e+00 -2.6084238962e-01 1.3613031672e+00 2.0063759818e+01" dipole_derivatives="8.2319623335e-04 -1.9123572960e-03 -4.6930066771e-03 -9.6825512906e-03 6.5601750415e-02 3.4745827000e-02 -1.1138667968e-02 2.7254180409e-02 4.9635156421e-02 -5.2895241260e-02 -1.3099195847e-02 -7.5093993793e-02 3.9476421851e-03 7.5250250758e-02 1.7808152826e-02 -5.1489158424e-02 6.7820633009e-03 -8.6675950375e-06 -2.1546112039e-02 5.6632223026e-03 5.5473679379e-02 2.6509894508e-03 6.8428770802e-02 9.5646373108e-03 5.2373144121e-02 7.4754500270e-03 1.4856726458e-02 3.9620182353e-02 -3.3303886360e-03 8.9942971355e-03 4.5921701370e-03 -5.0585159769e-02 8.4621646231e-02 4.6329925890e-03 1.2055081626e-01 4.3387204550e-03 3.3993960440e-02 1.2677953339e-02 1.5316460365e-02 -1.5142467327e-03 -1.5868887687e-01 -1.4672742860e-01 5.6186316415e-03 -1.6205439084e-01 -6.8817734554e-02" charge=0 multiplicity=1 method=b3lyp basis=def2-svpd config_type=ch4 sample_index=14 temperature=500.0 units=atomic
C        -0.0093347237       0.0255902494       0.0345824634   1.442713867148e-02  -4.908808249930e-02  -7.778394061257e-02
H         0.9714733349      -0.1090697009       0.5603728577  -1.805705885993e-02   1.202448349081e-02   9.895799103753e-04