3
Properties=species:S:1:pos:R:3:forces:R:3 energy=-1.884567139522e+02 dipole="5.8348731495e-02 2.4779993340e-02 -2.9445467121e-02" quadrupole="-1.1117070701e+01 4.0047366557e-03 -2.3236022201e-03 4.0047366557e-03 -1.1124799775e+01 -9.8680743519e-04 -2.3236022201e-03 -9.8680743519e-04 -1.4554366688e+01" polarizability="1.2732011705e+01 1.3240908519e-02 -6.4319224268e-03 1.3240720966e-02 1.2706458786e+01 -2.7315513810e-03 -6.4324676416e-03 -2.7317811846e-03 2.5796096344e+01" dipole_derivatives="5.3396175124e-01 -1.1615568832e-03 1.8426021873e-03 -1.1613967412e-03 5.3620301627e-01 7.8249844411e-04 4.9226112712e-04 2.0867750767e-04 2.5000592961e+00 -2.7224885570e-01 5.8498607620e-04 4.7757971212e-02 5.8492930012e-04 -2.7337763213e-01 2.0282233365e-02 -1.8391607611e-02 -7.8101236622e-03 -1.2401678711e+00 -2.6171152999e-01 5.8062892339e-04 -4.9601091989e-02 5.8052552109e-04 -2.6283185061e-01 -2.1064952055e-02 1.7899057320e-02 7.6013233031e-03 -1.2598904283e+00" charge=0 multiplicity=1 method=b3lyp basis=def2-svpd config_type=co2 sample_index=0 temperature=500.0 units=atomic
C         0.0418367959       0.0177675761      -0.0045321965  -1.593468696158e-02  -6.767267038012e-03   2.359362154818e-02
O        -0.0156937960      -0.0066649627       1.1619562906   8.500487440870e-03   3.610053283368e-03  -7.064082131617e-03
O        -0.0156937771      -0.0066649560      -1.1585560626   7.416307544984e-03   3.149615251095e-03  -1.652934429344e-02
3
Properties=species:S:1:pos:R:3:forces:R:3 energy=-1.884548331688e+02 dipole="-2.2464889997e-02 1.1227186269e-02 7.2072279265e-02" quadrupole="-1.1043418851e+01 -6.6650296359e-04 -2.0980585653e-03 -6.6650296359e-04 -1.1044419386e+01 1.0485619034e-03 -2.0980585653e-03 1.0485619034e-03 -1.4498695485e+01" polarizability="1.2449250665e+01 -2.2285837954e-03 -5.7536148880e-03 -2.2285756814e-03 1.2445905415e+01 2.8753748354e-03 -5.7543978467e-03 2.8757657049e-03 2.4961030970e+01" dipole_derivatives="5.4928461732e-01 1.9644035269e-04 1.6559634125e-03 1.9691614193e-04 5.4958036056e-01 -8.2762198391e-04 4.5244492364e-04 -2.3065408979e-04 2.5657836631e+00 -2.6152118127e-01 -9.7607667968e-05 -1.9932098027e-02 -9.7870506287e-05 -2.6166819758e-01 9.9613898703e-03 6.6773102381e-03 -3.3279404240e-03 -1.3060978424e+00 -2.8776786757e-01 -9.9585183736e-05 1.8275043022e-02 -9.9798177956e-05 -2.8791772419e-01 -9.1332223238e-03 -7.1300780040e-03 3.5587559917e-03 -1.2596842872e+00" charge=0 multiplicity=1 method=b3lyp basis=def2-svpd config_type=co2 sample_index=1 temperature=500.0 units=atomic
C        -0.0157272337       0.0078599356       0.0108066015   4.719940702857e-03  -2.358865215655e-03  -6.549462755252e-02
O         0.0058996296      -0.0029484417       1.1377388498  -1.763741709990e-03   8.814575070050e-04   8.526869181419e-02
O         0.0058995459      -0.0029483842      -1.1458463779  -2.942600482127e-03   1.470611636224e-03  -1.977479248511e-02
3
Properties=species:S:1:pos:R:3:forces:R:3 energy=-1.884544637348e+02 dipole="3.2653922474e-03 -7.0223696711e-02 -1.0352610904e-01" quadrupole="-1.1181029004e+01 -6.5548729981e-04 -4.7109369740e-04 -6.5548729981e-04 -1.1166962933e+01 1.0133691966e-02 -4.7109369740e-04 1.0133691966e-02 -1.4585331601e+01" polarizability="1.2881174644e+01 -2.1534748760e-03 -1.3123788697e-03 -2.1535236209e-03 1.2927382996e+01 2.8213006287e-02 -1.3123375335e-03 2.8212045574e-02 2.6363263827e+01" dipole_derivatives="5.2776385563e-01 1.8805226283e-04 3.7346892810e-04 1.8884739999e-04 5.2372859087e-01 -8.0330560953e-03 9.3255590271e-05 -2.0764310945e-03 2.4541569800e+00 -2.8221577186e-01 -9.5513083294e-05 2.5044948416e-03 -9.5826477788e-05 -2.8016621996e-01 -5.3859634003e-02 -1.0733686627e-03 2.3021247294e-02 -1.1916095818e+00 -2.4555705106e-01 -9.3172142172e-05 -2.8780161410e-03 -9.3653865212e-05 -2.4355775613e-01 6.1893816078e-02 9.8010450461e-04 -2.0944630146e-02 -1.2625469977e+00" charge=0 multiplicity=1 method=b3lyp basis=def2-svpd config_type=co2 sample_index=2 temperature=500.0 units=atomic
C         0.0023809127      -0.0512026198      -0.0162245872  -9.893340374479e-04   2.127602820711e-02   7.637390209783e-02
O        -0.0008931687       0.0192071060       1.1793768519   5.914730273857e-04  -1.271985659253e-02  -5.868202694717e-02
O        -0.0008930835       0.0192070683      -1.1672045427   3.971495896227e-04  -8.540872188304e-03  -1.769071518422e-02
3
Properties=species:S:1:pos:R:3:forces:R:3 energy=-1.884538856172e+02 dipole="-1.7445766648e-02 -5.2916959112e-02 -9.0328805863e-02" quadrupole="-1.1049738006e+01 2.4492940274e-03 2.0493241738e-03 2.4492940274e-03 -1.1043116231e+01 6.2160312709e-03 2.0493241738e-03 6.2160312709e-03 -1.4501972226e+01" polarizability="1.2468274864e+01 8.1794857491e-03 5.6278576214e-03 8.1795965568e-03 1.2490387141e+01 1.7070684709e-02 5.6282937209e-03 1.7072016409e-02 2.5009031303e+01" dipole_derivatives="5.4818667483e-01 -7.2238931742e-04 -1.6177815732e-03 -7.2466865494e-04 5.4623459112e-01 -4.9073748067e-03 -4.3979348247e-04 -1.3275574955e-03 2.5582943461e+00 -2.9053830835e-01 3.6652637252e-04 -1.4015409290e-02 3.6767742079e-04 -2.8954789704e-01 -4.2511762422e-02 5.6012561539e-03 1.6935727999e-02 -1.2499871013e+00 -2.5765401795e-01 3.5804310693e-04 1.5633803745e-02 3.5917140263e-04 -2.5668645132e-01 4.7420996245e-02 -5.1612931963e-03 -1.5607656295e-02 -1.3083069091e+00" charge=0 multiplicity=1 method=b3lyp basis=def2-svpd config_type=co2 sample_index=3 temperature=500.0 units=atomic
C        -0.0122413410      -0.0371307577      -0.0135814963   3.697002472503e-03   1.121384768216e-02   8.143738817160e-02
O         0.0045919525       0.0139284419       1.1471887621  -2.415075217114e-03  -7.325470443451e-03   1.025586461729e-02
O         0.0045919723       0.0139284803      -1.1369994014  -1.275495007997e-03  -3.868866776808e-03  -9.169252912221e-02
3
Properties=species:S:1:pos:R:3:forces:R:3 energy=-1.884549757722e+02 dipole="6.3012871516e-02 -1.4943089323e-02 -5.5724107190e-02" quadrupole="-1.1197333293e+01 -2.7339203444e-03 -4.9688707492e-03 -2.7339203444e-03 -1.1208213513e+01 1.1782927866e-03 -4.9688707492e-03 1.1782927866e-03 -1.4604376397e+01" polarizability="1.3003246272e+01 -8.9493035718e-03 -1.3849538528e-02 -8.9491240543e-03 1.2967633528e+01 3.2844978052e-03 -1.3848982200e-02 3.2843628764e-03 2.6676859410e+01" dipole_derivatives="5.2044649932e-01 7.7701026407e-04 3.9361013810e-03 7.7872125859e-04 5.2354574805e-01 -9.3339719140e-04 1.0095479124e-03 -2.3893924206e-04 2.4340158221e+00 -2.7001321455e-01 -3.9258331940e-04 4.9559205592e-02 -3.9343953013e-04 -2.7157908442e-01 -1.1752653002e-02 -2.0307267630e-02 4.8058630078e-03 -1.1976684216e+00 -2.5043012270e-01 -3.8747762615e-04 -5.3495810987e-02 -3.8833242620e-04 -2.5197564239e-01 1.2686169706e-02 1.9297826228e-02 -4.5669490327e-03 -1.2363473277e+00" charge=0 multiplicity=1 method=b3lyp basis=def2-svpd config_type=co2 sample_index=4 temperature=500.0 units=atomic
C         0.0462995560      -0.0109796357      -0.0088086955  -2.050445435456e-02   4.862497079650e-03   3.918255914358e-02
O        -0.0173678895       0.0041186957       1.1839011980   1.119516745740e-02  -2.654861088607e-03  -5.647810143670e-02
O        -0.0173678178       0.0041186493      -1.1772925759   9.291904551573e-03  -2.203513881978e-03   1.729657610038e-02
3
Properties=species:S:1:pos:R:3:forces:R:3 energy=-1.884543796858e+02 dipole="1.0888548950e-01 -3.6762398916e-02 -1.9099702270e-02" quadrupole="-1.1105982145e+01 -1.1193194062e-02 -2.8383212203e-03 -1.1193194062e-02 -1.1135355848e+01 9.5830183078e-04 -2.8383212203e-03 9.5830183078e-04 -1.4563431778e+01" polarizability="1.2852918390e+01 -3.6885755063e-02 -7.8803665818e-03 -3.6885124571e-02 1.2756127486e+01 2.6605453027e-03 -7.8800211787e-03 2.6604282750e-03 2.5898236680e+01" dipole_derivatives="5.2410601488e-01 3.2220405464e-03 2.2481028534e-03 3.2228644862e-03 5.3256377811e-01 -7.5890494944e-04 6.0507288919e-04 -2.0211276530e-04 2.4802844096e+00 -2.6546053730e-01 -1.6171427238e-03 8.9540823056e-02 -1.6175714123e-03 -2.6970557626e-01 -3.0231229539e-02 -3.4184999745e-02 1.1537153464e-02 -1.2337082084e+00 -2.5864028127e-01 -1.6092067940e-03 -9.1788629301e-02 -1.6096020600e-03 -2.6286431332e-01 3.0990034358e-02 3.3580041372e-02 -1.1335079293e-02 -1.2465744241e+00" charge=0 multiplicity=1 method=b3lyp basis=def2-svpd config_type=co2 sample_index=5 temperature=500.0 units=atomic
C         0.0785180373      -0.0265096059      -0.0029633019  -3.052396410313e-02   1.030563528101e-02   1.498484237147e-02
O        -0.0294536329       0.0099442602       1.1602938420   1.591264684481e-02  -5.372497952501e-03  -6.213412300374e-03
O        -0.0294536179       0.0099442655      -1.1580706590   1.462436220259e-02  -4.937541620165e-03  -8.771708320558e-03
3
Properties=species:S:1:pos:R:3:forces:R:3 energy=-1.884567863679e+02 dipole="1.0236995609e-03 -9.9644354908e-03 -1.5381299367e-02" quadrupole="-1.1197551565e+01 -2.9391931841e-05 -2.2055565690e-05 -2.9391931841e-05 -1.1197268491e+01 2.1515423830e-04 -2.2055565690e-05 2.1515423830e-04 -1.4598138635e+01" polarizability="1.2926202749e+01 -9.6389724062e-05 -6.1730050364e-05 -9.6389942364e-05 1.2927131010e+01 5.9897545620e-04 -6.1744498210e-05 5.9911586292e-04 2.6571237453e+01" dipole_derivatives="5.2610304148e-01 8.3753536677e-06 1.7497604494e-05 8.3441835811e-06 5.2602205789e-01 -1.7060328741e-04 7.5774532187e-06 -4.7842051508e-05 2.4482455739e+00 -2.6576420826e-01 -4.2221023732e-06 8.3004116141e-04 -4.2237740640e-06 -2.6572339418e-01 -8.0792766177e-03 -3.2503559499e-04 3.1499261218e-03 -1.2188044271e+00 -2.6034688846e-01 -4.2033259400e-06 -8.4754382602e-04 -4.1705089456e-06 -2.6030623695e-01 8.2499291466e-03 3.1745984891e-04 -3.1021007784e-03 -1.2294363535e+00" charge=0 multiplicity=1 method=b3lyp basis=def2-svpd config_type=co2 sample_index=6 temperature=500.0 units=atomic
C         0.0007487791      -0.0072884298      -0.0024176435  -3.285377332959e-04   3.197903136745e-03   1.101061526893e-02
O        -0.0002809003       0.0027340503       1.1805603657   1.682513409118e-04  -1.637711353375e-03  -3.927011717394e-02
O        -0.0002808626       0.0027340100      -1.1787465565   1.595572770935e-04  -1.553094756228e-03   2.825995850880e-02
3
Properties=species:S:1:pos:R:3:forces:R:3 energy=-1.884522980658e+02 dipole="-4.0001685692e-02 7.1330112128e-02 2.1618271529e-02" quadrupole="-1.1010741794e+01 -7.4259395225e-03 -1.1056628394e-03 -7.4259395225e-03 -1.1001664467e+01 1.9715264228e-03 -1.1056628394e-03 1.9715264228e-03 -1.4479946590e+01" polarizability="1.2364831821e+01 -2.4880855404e-02 -3.0207587470e-03 -2.4881064572e-02 1.2395244240e+01 5.3867867104e-03 -3.0209744052e-03 5.3871722454e-03 2.4650405935e+01" dipole_derivatives="5.5254086220e-01 2.1994630356e-03 8.7033536925e-04 2.1970620599e-03 5.4985076595e-01 -1.5516738334e-03 2.4633368508e-04 -4.2939576486e-04 2.5831136318e+00 -2.7230366442e-01 -1.0985511491e-03 -3.4700793298e-02 -1.0972150029e-03 -2.7096000413e-01 6.1877569782e-02 1.2101314441e-02 -2.1607588354e-02 -1.2984341431e+00 -2.8024024105e-01 -1.1048129452e-03 3.3830334666e-02 -1.1037480973e-03 -2.7888903655e-01 -6.0325676108e-02 -1.2347644737e-02 2.2036977784e-02 -1.2846795026e+00" charge=0 multiplicity=1 method=b3lyp basis=def2-svpd config_type=co2 sample_index=7 temperature=500.0 units=atomic
C        -0.0277973609       0.0495676326       0.0032205138   7.524630438943e-03  -1.341775315505e-02  -2.047175097612e-02
O         0.0104273594      -0.0185938124       1.1307592893  -3.429018144687e-03   6.114550120446e-03   8.232591072771e-02
O         0.0104272896      -0.0185937316      -1.1331754425  -4.090733585727e-03   7.294503430381e-03  -6.185433455623e-02
3
Properties=species:S:1:pos:R:3:forces:R:3 energy=-1.884511125320e+02 dipole="-1.4731231119e-01 3.4437781595e-04 -7.6824898345e-02" quadrupole="-1.1101436895e+01 -1.4412061827e-04 1.5682176226e-02 -1.4412061827e-04 -1.1163086115e+01 -3.6662645709e-05 1.5682176226e-02 -3.6662645709e-05 -1.4577438869e+01" polarizability="1.3028598775e+01 -4.7317850916e-04 4.3756281368e-02 -4.7305304020e-04 1.2826239456e+01 -1.0228381303e-04 4.3754971730e-02 -1.0229933142e-04 2.6115086484e+01" dipole_derivatives="5.1110717047e-01 4.1035176479e-05 -1.2398278036e-02 4.1173038290e-05 5.2871935427e-01 2.8984461124e-05 -3.3681995434e-03 1.0378935586e-05 2.4509350166e+00 -2.6919684559e-01 -2.0857428173e-05 -1.1593620263e-01 -2.0802190805e-05 -2.7809522417e-01 2.7102844084e-04 4.7627726597e-02 -1.1193552912e-04 -1.1993367924e+00 -2.4191045545e-01 -2.0190320714e-05 1.2833218595e-01 -2.0383421343e-05 -2.5062964624e-01 -3.0000752137e-04 -4.4260132760e-02 1.0155805269e-04 -1.2515953321e+00" charge=0 multiplicity=1 method=b3lyp basis=def2-svpd config_type=co2 sample_index=8 temperature=500.0 units=atomic
C        -0.1072189848       0.0002506501      -0.0120585292   4.289530604158e-02  -1.002780364937e-04   5.810079222539e-02
O         0.0402198858      -0.0000940230       1.1656085424  -2.484027391516e-02   5.807007958297e-05  -3.530807144440e-02
O         0.0402199195      -0.0000940243      -1.1565617701  -1.807430636798e-02   4.225301499197e-05  -2.279210032022e-02
3
Properties=species:S:1:pos:R:3:forces:R:3 energy=-1.884542017934e+02 dipole="-7.0570712994e-02 4.6822605011e-02 7.6371683009e-02" quadrupole="-1.1064339296e+01 -8.9113465673e-03 -7.1128172327e-03 -8.9113465673e-03 -1.1071857873e+01 4.7192377480e-03 -7.1128172327e-03 4.7192377480e-03 -1.4521326170e+01" polarizability="1.2595609984e+01 -2.9627569045e-02 -1.9606672581e-02 -2.9627358738e-02 1.2570614529e+01 1.3008766275e-02 -1.9606022958e-02 1.3008332859e-02 2.5275697124e+01" dipole_derivatives="5.3986121168e-01 2.6102175240e-03 5.6237208156e-03 2.6104791132e-03 5.4206381297e-01 -3.7311788158e-03 1.5249872398e-03 -1.0077956734e-03 2.5336805763e+00 -2.5610966482e-01 -1.2950756121e-03 -6.2425042939e-02 -1.2951457334e-03 -2.5720240000e-01 4.1418031527e-02 2.1038086975e-02 -1.3959010982e-02 -1.2918241213e+00 -2.8374993573e-01 -1.3208068505e-03 5.6800682804e-02 -1.3209983268e-03 -2.8486458140e-01 -3.7686428549e-02 -2.2563268894e-02 1.4966935662e-02 -1.2418562086e+00" charge=0 multiplicity=1 method=b3lyp basis=def2-svpd config_type=co2 sample_index=9 temperature=500.0 units=atomic
C        -0.0499396243       0.0331341883       0.0115959567   1.648918463099e-02  -1.094032521569e-02  -6.601442939829e-02
O         0.0187333545      -0.0124292954       1.1425577301  -6.379886100736e-03   4.232958129652e-03   6.836456000122e-02
O         0.0187332719      -0.0124292468      -1.1512574628  -1.010265804881e-02   6.702961226636e-03  -2.349531020769e-03
3
Properties=species:S:1:pos:R:3:forces:R:3 energy=-1.884531002987e+02 dipole="-7.5144086842e-02 -3.8945681746e-02 1.4666180251e-02" quadrupole="-1.1227383245e+01 8.6775405144e-03 -1.5927172319e-03 8.6775405144e-03 -1.1239628805e+01 -8.2557685570e-04 -1.5927172319e-03 -8.2557685570e-04 -1.4626173330e+01" polarizability="1.3133057859e+01 2.8270453813e-02 -4.4495441545e-03 2.8270078117e-02 1.3093166077e+01 -2.3056831760e-03 -4.4493396780e-03 -2.3055760516e-03 2.7058731590e+01" dipole_derivatives="5.1317880080e-01 -2.4443091620e-03 1.2608630897e-03 -2.4451379161e-03 5.1662975493e-01 6.5365287050e-04 3.2283634684e-04 1.5955441309e-04 2.4024544020e+00 -2.5402940928e-01 1.2239523208e-03 -6.1527244917e-02 1.2241735563e-03 -2.5575705428e-01 -3.1888431330e-02 2.3536282758e-02 1.2196890364e-02 -1.2064053707e+00 -2.5914568531e-01 1.2278212012e-03 6.0266342830e-02 1.2284287347e-03 -2.6087952797e-01 3.1234758246e-02 -2.3859081992e-02 -1.2356425370e-02 -1.1960504559e+00" charge=0 multiplicity=1 method=b3lyp basis=def2-svpd config_type=co2 sample_index=10 temperature=500.0 units=atomic
C        -0.0558351477      -0.0289382439       0.0023491761   2.612310905693e-02   1.353908668812e-02  -9.710152475629e-03
O         0.0209448250       0.0108553215       1.1871964744  -1.278066906903e-02  -6.623967683252e-03  -4.836338236992e-02
O         0.0209448498       0.0108552618      -1.1889589167  -1.333712610490e-02  -6.912364925281e-03   5.807313978786e-02
3
Properties=species:S:1:pos:R:3:forces:R:3 energy=-1.884475857830e+02 dipole="-1.5559951820e-01 -3.2568344225e-02 1.0871421356e-01" quadrupole="-1.1158924366e+01 1.4977905943e-02 -2.4380015638e-02 1.4977905943e-02 -1.1227348260e+01 -5.1029634030e-03 -2.4380015638e-02 -5.1029634030e-03 -1.4616250491e+01" polarizability="1.3280507466e+01 4.8800935927e-02 -6.8487581489e-02 4.8800389601e-02 1.3057566505e+01 -1.4335002267e-02 -6.8485685376e-02 -1.4334588782e-02 2.6822323263e+01" dipole_derivatives="4.9731212549e-01 -4.2081378744e-03 1.9240642395e-02 -4.2059208483e-03 5.1652590149e-01 4.0272632121e-03 5.1111996844e-03 1.0640551315e-03 2.3908874451e+00 -2.2962896091e-01 2.0748388731e-03 -1.3657646251e-01 2.0733827831e-03 -2.3910065520e-01 -2.8586665945e-02 4.6274521396e-02 9.6946400615e-03 -1.2334959782e+00 -2.6768716626e-01 2.1335891178e-03 1.1733825593e-01 2.1328281586e-03 -2.7743057309e-01 2.4559912571e-02 -5.1385396506e-02 -1.0758627058e-02 -1.1573872484e+00" charge=0 multiplicity=1 method=b3lyp basis=def2-svpd config_type=co2 sample_index=11 temperature=500.0 units=atomic
C        -0.1157268690      -0.0242226492       0.0174873834   5.128232131974e-02   1.073383958376e-02  -7.383629318255e-02
O         0.0434114069       0.0090863926       1.1694388405  -2.117464704877e-02  -4.432039432862e-03   4.103503689949e-04
O         0.0434113403       0.0090863702      -1.1825585479  -3.011977066119e-02  -6.304332031528e-03   7.342353793369e-02
3
Properties=species:S:1:pos:R:3:forces:R:3 energy=-1.884501920331e+02 dipole="1.2342365313e-01 -3.1223415268e-02 1.2900270745e-01" quadrupole="-1.1048073655e+01 -1.0488474408e-02 2.1190219761e-02 -1.0488474408e-02 -1.1086880404e+01 -5.3606133661e-03 2.1190219761e-02 -5.3606133661e-03 -1.4526524583e+01" polarizability="1.2735212505e+01 -3.4772934552e-02 5.8656890018e-02 -3.4769323805e-02 1.2606565365e+01 -1.4839012412e-02 5.8655743621e-02 -1.4838595017e-02 2.5355642436e+01" dipole_derivatives="5.2855432327e-01 3.0539076871e-03 -1.6737313728e-02 3.0567465536e-03 5.3986496328e-01 4.2341346503e-03 -4.6181615628e-03 1.1750830268e-03 2.5131001856e+00 -2.4098624691e-01 -1.5016755404e-03 1.1256488687e-01 -1.5034583889e-03 -2.4654949848e-01 -2.8476371363e-02 -3.5819429328e-02 9.0502282113e-03 -1.2989562281e+00 -2.8756435474e-01 -1.5546002535e-03 -9.5830194301e-02 -1.5556563023e-03 -2.9332050512e-01 2.4242899827e-02 4.0436972830e-02 -1.0225154802e-02 -1.2141431415e+00" charge=0 multiplicity=1 method=b3lyp basis=def2-svpd config_type=co2 sample_index=12 temperature=500.0 units=atomic
C         0.0878515364      -0.0222244670       0.0197359447  -2.872939096740e-02   7.267892177991e-03  -1.098273299445e-01
O        -0.0329547494       0.0083367998       1.1382237440   8.923041138368e-03  -2.257330062119e-03   9.069894299382e-02
O        -0.0329548514       0.0083368500      -1.1530304086   1.982362881318e-02  -5.014933311041e-03   1.912916338967e-02
3
Properties=species:S:1:pos:R:3:forces:R:3 energy=-1.884550035055e+02 dipole="2.6164006289e-02 5.7960986706e-02 2.2331108719e-02" quadrupole="-1.1216779097e+01 4.4278453195e-03 8.3140521219e-04 4.4278453195e-03 -1.1208968876e+01 1.8416844900e-03 8.3140521219e-04 1.8416844900e-03 -1.4611052614e+01" polarizability="1.3002374606e+01 1.4474877829e-02 2.3178228503e-03 1.4475091837e-02 1.3027905098e+01 5.1351613908e-03 2.3177220160e-03 5.1349417940e-03 2.6789299410e+01" dipole_derivatives="5.2170319879e-01 -1.2569885773e-03 -6.5854015775e-04 -1.2574348665e-03 5.1948624454e-01 -1.4587728283e-03 -1.6238819127e-04 -3.7008155325e-04 2.4266318109e+00 -2.5693681564e-01 6.2942224864e-04 2.1664201784e-02 6.2975420833e-04 -2.5582667526e-01 4.7992525600e-02 -8.1508774301e-03 -1.8043486846e-02 -1.2211054423e+00 -2.6477401417e-01 6.3267911495e-04 -2.1005586622e-02 6.3279346366e-04 -2.6365818196e-01 -4.6533586714e-02 8.3132274341e-03 1.8413483513e-02 -1.2055266571e+00" charge=0 multiplicity=1 method=b3lyp basis=def2-svpd config_type=co2 sample_index=13 temperature=500.0 units=atomic
C         0.0192780628       0.0427065915       0.0035412405  -8.713919381582e-03  -1.930390099504e-02  -1.543213791767e-02
O        -0.0072315824      -0.0160200437       1.1818298982   4.198192192284e-03   9.300232133825e-03  -3.476674103479e-02
O        -0.0072315616      -0.0160200835      -1.1844866731   4.508220764961e-03   9.987039918654e-03   5.019842110469e-02
3
Properties=species:S:1:pos:R:3:forces:R:3 energy=-1.884549898335e+02 dipole="-6.4763433304e-02 -1.0413675119e-02 1.8509467428e-02" quadrupole="-1.1040677688e+01 1.7908848050e-03 -1.5599979484e-03 1.7908848050e-03 -1.1051527370e+01 -2.5075054116e-04 -1.5599979484e-03 -2.5075054116e-04 -1.4505260914e+01" polarizability="1.2502319922e+01 5.9762050742e-03 -4.2820611472e-03 5.9760789964e-03 1.2466117057e+01 -6.8886486176e-04 -4.2823978068e-03 -6.8891842829e-04 2.5026576673e+01" dipole_derivatives="5.4502773567e-01 -5.2772066943e-04 1.2321678697e-03 -5.2685506653e-04 5.4821959918e-01 1.9809291944e-04 3.2513656032e-04 5.0611092216e-05 2.5575645029e+00 -2.6914688394e-01 2.6399357252e-04 -5.5606821677e-02 2.6351940144e-04 -2.7074331733e-01 -8.9413197241e-03 1.9747578858e-02 3.1813343787e-03 -1.2847707857e+00 -2.7587846708e-01 2.6511461023e-04 5.4374276220e-02 2.6472319056e-04 -2.7748230317e-01 8.7431660963e-03 -2.0072829653e-02 -3.2319637939e-03 -1.2727928946e+00" charge=0 multiplicity=1 method=b3lyp basis=def2-svpd config_type=co2 sample_index=14 temperature=500.0 units=atomic
C        -0.0454532348      -0.0073086799       0.0027849536   1.414217012972e-02   2.273999279417e-03  -1.660711356742e-02
O         0.0170504090       0.0027416008       1.1408702443  -6.631490351248e-03  -1.066316006601e-03   5.620486988710e-02
O         0.0170503556       0.0027416519      -1.1429596236  -7.492811985531e-03  -1.204810210403e-03  -3.959778360815e-02
3
Properties=species:S:1:pos:R:3:forces:R:3 energy=-1.884564620850e+02 dipole="-4.1431847591e-02 3.6504376351e-02 -3.6856333926e-02" quadrupole="-1.1087526267e+01 -4.1074161630e-03 2.0278583014e-03 -4.1074161630e-03 -1.1088569192e+01 -1.7866459217e-03 2.0278583014e-03 -1.7866459217e-03 -1.4531865974e+01" polarizability="1.2607736019e+01 -1.3641533311e-02 5.5929817433e-03 -1.3641504961e-02 1.2604272479e+01 -4.9279605410e-03 5.5934721940e-03 -4.9283921938e-03 2.5441517618e+01" dipole_derivatives="5.4078082882e-01 1.2000454246e-03 -1.6040875478e-03 1.1996914367e-03 5.4108520278e-01 1.4134266090e-03 -4.2265884924e-04 3.7847908612e-04 2.5276944759e+00 -2.7703700677e-01 -6.0499938649e-04 -3.4044413838e-02 -6.0472018027e-04 -2.7719033455e-01 2.9995475657e-02 1.3029438078e-02 -1.1483402043e-02 -1.2517167482e+00 -2.6374633513e-01 -5.9923033064e-04 3.5649166270e-02 -5.9915554217e-04 -2.6389844374e-01 -3.1409488031e-02 -1.2606423234e-02 1.1104609409e-02 -1.2759764302e+00" charge=0 multiplicity=1 method=b3lyp basis=def2-svpd config_type=co2 sample_index=15 temperature=500.0 units=atomic
C        -0.0294087671       0.0259111952      -0.0056106905   1.029356412328e-02  -9.069355266513e-03   3.113939264254e-02
O         0.0110317933      -0.0097198004       1.1543856668  -5.650644657910e-03   4.978615751406e-03   8.228586950127e-03
O         0.0110317946      -0.0097197747      -1.1501763110  -4.626966734707e-03   4.076684035793e-03  -3.936761144778e-02
3
Properties=species:S:1:pos:R:3:forces:R:3 energy=-1.884534743019e+02 dipole="9.5070650171e-03 7.8943463262e-02 -7.0879437783e-02" quadrupole="-1.1048889381e+01 1.9911861528e-03 -8.7624984965e-04 1.9911861528e-03 -1.1032595038e+01 -7.2760896214e-03 -8.7624984965e-04 -7.2760896214e-03 -1.4502208438e+01" polarizability="1.2461118910e+01 6.6447048783e-03 -2.4064427388e-03 6.6448691426e-03 1.2515491146e+01 -1.9982266706e-02 -2.4066091815e-03 -1.9983662803e-02 2.4988467814e+01" dipole_derivatives="5.4830285354e-01 -5.8633514893e-04 6.9142490604e-04 -5.8806645684e-04 5.4350531394e-01 5.7413880803e-03 1.8815446532e-04 1.5734178161e-03 2.5566677365e+00 -2.8707446051e-01 2.9652882253e-04 7.7371086300e-03 2.9734447869e-04 -2.8464815212e-01 6.4246251225e-02 -3.0263811850e-03 -2.5054740541e-02 -1.2554557140e+00 -2.6123448878e-01 2.9106578839e-04 -8.4286477521e-03 2.9198146985e-04 -2.5885295124e-01 -6.9988587854e-02 2.8382023685e-03 2.3481119769e-02 -1.3012118104e+00" charge=0 multiplicity=1 method=b3lyp basis=def2-svpd config_type=co2 sample_index=16 temperature=500.0 units=atomic
C         0.0066715472       0.0553982790      -0.0106656729  -2.018930317077e-03  -1.676451734567e-02   6.393456666256e-02
O        -0.0025026291      -0.0207809866       1.1443481291   1.252929063762e-03   1.040390099506e-02   2.004321851812e-02
O        -0.0025026221      -0.0207809326      -1.1363463312   7.646468959855e-04   6.349370223386e-03  -8.397784955620e-02
3
Properties=species:S:1:pos:R:3:forces:R:3 energy=-1.884472525054e+02 dipole="8.4075779755e-02 1.5183621554e-01 6.0649939549e-02" quadrupole="-1.1215150079e+01 3.7888597965e-02 7.3790041331e-03 3.7888597965e-02 -1.1167705295e+01 1.3326095674e-02 7.3790041331e-03 1.3326095674e-02 -1.4622823993e+01" polarizability="1.3130533975e+01 1.2325316218e-01 2.0759978152e-02 1.2325360455e-01 1.3284875226e+01 3.7491285984e-02 2.0759180879e-02 3.7489851939e-02 2.6873346300e+01" dipole_derivatives="5.1030621730e-01 -1.0590333366e-02 -5.8140052936e-03 -1.0591824727e-02 4.9704572824e-01 -1.0499792267e-02 -1.5549005996e-03 -2.8123023136e-03 2.3821806910e+00 -2.4448029252e-01 5.2514526598e-03 7.1375821431e-02 5.2523426246e-03 -2.3790487130e-01 1.2890080964e-01 -2.5623647978e-02 -4.6265038700e-02 -1.2123835970e+00 -2.6583044894e-01 5.3370920691e-03 -6.5562282304e-02 5.3376933760e-03 -2.5914762094e-01 -1.1840185925e-01 2.7178454317e-02 4.9077170820e-02 -1.1697953108e+00" charge=0 multiplicity=1 method=b3lyp basis=def2-svpd config_type=co2 sample_index=17 temperature=500.0 units=atomic
C         0.0626808570       0.1131981667       0.0097956254  -2.834917461024e-02  -5.119704393997e-02  -4.065672347562e-02
O        -0.0235127877      -0.0424628038       1.1714001916   1.284521320771e-02   2.319774602352e-02  -1.933176679230e-02
O        -0.0235128015      -0.0424628137      -1.1787492464   1.550365571035e-02   2.799874585303e-02   5.998589661398e-02
3
Properties=species:S:1:pos:R:3:forces:R:3 energy=-1.884505639169e+02 dipole="7.8029656478e-02 -7.4082014676e-03 -1.3967018367e-01" quadrupole="-1.1025662076e+01 -1.5276642245e-03 -1.4125976542e-02 -1.5276642245e-03 -1.1041607730e+01 1.3412100772e-03 -1.4125976542e-02 1.3412100772e-03 -1.4492848703e+01" polarizability="1.2499894492e+01 -5.1059900623e-03 -3.8804997835e-02 -5.1058790636e-03 1.2446602963e+01 3.6839016126e-03 -3.8807272508e-02 3.6841167875e-03 2.4899465731e+01" dipole_derivatives="5.4439436211e-01 4.4979174194e-04 1.1136164679e-02 4.5169413600e-04 5.4910923081e-01 -1.0573528275e-03 3.0703490856e-03 -2.9838538020e-04 2.5597049621e+00 -2.9765503891e-01 -2.2973804596e-04 6.0960265342e-02 -2.3048692760e-04 -3.0006085228e-01 -5.7875865632e-03 -2.5494961756e-02 2.4134168921e-03 -1.2350061714e+00 -2.4673534172e-01 -2.2103290211e-04 -7.2098115693e-02 -2.2218645376e-04 -2.4905461829e-01 6.8450994379e-03 2.2424319787e-02 -2.1150038033e-03 -1.3246994032e+00" charge=0 multiplicity=1 method=b3lyp basis=def2-svpd config_type=co2 sample_index=18 temperature=500.0 units=atomic
C         0.0546794018      -0.0051913103      -0.0209757558  -1.527587628988e-02   1.450302262325e-03   1.280201788461e-01
O        -0.0205113215       0.0019473373       1.1464319910   1.166510242593e-02  -1.107495038351e-03  -2.317727357255e-03
O        -0.0205112683       0.0019473833      -1.1306951724   3.599084032721e-03  -3.416973810947e-04  -1.257016640652e-01
3
Properties=species:S:1:pos:R:3:forces:R:3 energy=-1.884525880984e+02 dipole="-2.8381109454e-02 -4.5460442298e-02 5.0956476216e-02" quadrupole="-1.1263036503e+01 3.8691873853e-03 -2.1134601943e-03 3.8691873853e-03 -1.1259254442e+01 -3.3854524525e-03 -2.1134601943e-03 -3.3854524525e-03 -1.4636929721e+01" polarizability="1.3155736884e+01 1.2580228458e-02 -5.9065864214e-03 1.2580326878e-02 1.3168032986e+01 -9.4604828857e-03 -5.9063314035e-03 -9.4600782227e-03 2.7312650897e+01" dipole_derivatives="5.1436209642e-01 -1.0873315313e-03 1.6707812551e-03 -1.0868863278e-03 5.1329901267e-01 2.6763416572e-03 4.1344598643e-04 6.5921808002e-04 2.3896092399e+00 -2.4833857128e-01 5.4321178579e-04 -2.3703855289e-02 5.4293237681e-04 -2.4780742028e-01 -3.7968521305e-02 8.7643949209e-03 1.4046447899e-02 -1.2129483875e+00 -2.6603028894e-01 5.4920287141e-04 2.2032847371e-02 5.4903708069e-04 -2.6549338755e-01 3.5291816569e-02 -9.1776654924e-03 -1.4705384959e-02 -1.1766594742e+00" charge=0 multiplicity=1 method=b3lyp basis=def2-svpd config_type=co2 sample_index=19 temperature=500.0 units=atomic
C        -0.0212051686      -0.0339661274       0.0082050175   1.018812879014e-02   1.631919375035e-02  -3.257767708608e-02
O         0.0079544580       0.0127413846       1.1923992216  -4.739293141710e-03  -7.591332274506e-03  -4.736383112201e-02
O         0.0079544749       0.0127413103      -1.1985549413  -5.438264747123e-03  -8.710929161355e-03   7.994090991791e-02
3