3
Properties=species:S:1:pos:R:3:forces:R:3 energy=-7.636861712883e+01 dipole="3.4925913582e-02 7.5655093592e-01 1.0271075800e-09" quadrupole="-3.5526044873e+00 1.0077026899e-01 6.3392439383e-10 1.0077026899e-01 -4.5873076699e+00 1.5486500508e-09 6.3392439383e-10 1.5486500508e-09 -5.7309480457e+00" polarizability="9.2884444756e+00 4.7747586906e-01 -7.1141013473e-09 4.7747556647e-01 9.0945853418e+00 -3.7586232347e-08 7.2169498685e-10 3.0990217663e-10 8.9457194133e+00" dipole_derivatives="-5.2836483691e-01 -9.4533957431e-03 -1.0542344775e-08 3.8693081421e-02 -3.7251625619e-01 -2.5508639645e-07 7.5699252525e-11 4.1996594221e-10 -6.8292332157e-01 2.5910920548e-01 6.7829693323e-02 -1.6983492390e-07 4.3087555031e-02 1.8275702746e-01 1.2870415844e-07 3.7811940973e-11 -2.0787335281e-10 3.4850938344e-01 2.6925675172e-01 -5.8376560322e-02 1.8033358140e-07 -8.1780115006e-02 1.8975864035e-01 1.2641833413e-07 -1.2496833182e-10 -2.0811525968e-10 3.3441562620e-01" charge=0 multiplicity=1 method=b3lyp basis=def2-svpd config_type=h2o sample_index=0 temperature=500.0 units=atomic
O        -0.0046639516      -0.0656723474      -0.0000000001   1.090780752191e-01  -7.018880265096e-02  -6.955209882739e-11
H        -0.6709548020       0.4930245720       0.0000000005  -1.129035064741e-01   8.004576860989e-02   8.196968192267e-11
H         0.7449750977       0.5492432388       0.0000000009   3.827168286572e-03  -9.860654619236e-03  -1.240687423555e-11
3
Properties=species:S:1:pos:R:3:forces:R:3 energy=-7.637355161990e+01 dipole="2.8965933016e-02 7.9989193134e-01 2.4502477864e-10" quadrupole="-3.6705281714e+00 9.9602225627e-02 6.9860587097e-12 9.9602225627e-02 -4.4578460302e+00 4.4911137293e-10 6.9860587097e-12 4.4911137293e-10 -5.8153825237e+00" polarizability="1.0040200997e+01 5.1327722280e-01 -3.0395678629e-09 5.1327687626e-01 9.8090117243e+00 -1.7899546116e-08 1.4782648254e-10 1.7890277747e-10 9.2063570422e+00" dipole_derivatives="-4.8444179234e-01 -6.8769924606e-03 1.0246109516e-09 3.4963807587e-02 -3.3870478482e-01 1.8793547274e-07 2.4676279428e-12 1.1872892740e-10 -6.4832689804e-01 2.3938837096e-01 6.7418993620e-02 1.0757761348e-07 5.6177151743e-02 1.6734339502e-01 -9.7390262521e-08 1.8202403267e-11 -5.1300046372e-11 3.3154341678e-01 2.4505312519e-01 -6.0543058686e-02 -1.0861320177e-07 -9.1141899642e-02 1.7136159404e-01 -9.0533983088e-08 -2.7045654983e-11 -4.3617513702e-11 3.1678497251e-01" charge=0 multiplicity=1 method=b3lyp basis=def2-svpd config_type=h2o sample_index=1 temperature=500.0 units=atomic
O        -0.0044644503      -0.0731359645      -0.0000000000   7.191375925486e-02   9.650819198719e-03   2.173316265750e-12
H        -0.6783532189       0.5534642888       0.0000000002  -5.399735722969e-02   2.714512443596e-02   8.949911286731e-12
H         0.7492072857       0.6072565415       0.0000000002  -1.791546336364e-02  -3.679523213095e-02  -1.107870858497e-11
3
Properties=species:S:1:pos:R:3:forces:R:3 energy=-7.637464002540e+01 dipole="-2.8918565873e-02 7.3513156651e-01 7.1490691706e-10" quadrupole="-3.4117433846e+00 -8.1646395471e-02 4.6785580800e-10 -8.1646395471e-02 -4.6970609123e+00 9.7407373601e-10 4.6785580800e-10 9.7407373601e-10 -5.7630768056e+00" polarizability="9.6099743083e+00 -3.7730966576e-01 4.1940913440e-09 -3.7730918536e-01 9.2303668096e+00 -2.5994301088e-08 -2.3998529240e-10 9.1239001276e-11 9.0481903230e+00" dipole_derivatives="-5.4242760880e-01 7.5765141885e-03 3.8863773311e-09 -3.2608692620e-02 -3.8367139256e-01 -5.1231574538e-08 2.8385777623e-12 3.0723574070e-10 -6.8524320376e-01 2.7536554693e-01 6.1215868079e-02 -4.0862202511e-08 7.0119736818e-02 1.9466559321e-01 2.6549665244e-08 5.4502117645e-11 -1.2634827078e-10 3.3784753757e-01 2.6706188539e-01 -6.8792528058e-02 3.6976560702e-08 -3.7510663234e-02 1.8900628105e-01 2.4653765140e-08 -5.5363373474e-11 -1.7150831419e-10 3.4739788618e-01" charge=0 multiplicity=1 method=b3lyp basis=def2-svpd config_type=h2o sample_index=2 temperature=500.0 units=atomic
O         0.0036537641      -0.0635687589      -0.0000000001  -8.047448812362e-02  -4.739125580087e-02  -6.519985171518e-11
H        -0.7691096417       0.5266798495       0.0000000003   5.417260183406e-03  -7.182436168035e-03  -5.792293771576e-12
H         0.7111217531       0.4822024842       0.0000000006   7.505113598965e-02   5.457101317873e-02   7.099372907246e-11
3
Properties=species:S:1:pos:R:3:forces:R:3 energy=-7.637522622227e+01 dipole="-1.4563319688e-02 7.1751246194e-01 -1.0590524191e-09" quadrupole="-3.1068462625e+00 -4.4114456603e-02 -4.9828971422e-10 -4.4114456603e-02 -4.8714488458e+00 -1.5323576217e-09 -4.9828971422e-10 -1.5323576217e-09 -5.9172144793e+00" polarizability="1.1372071120e+01 -2.1261118196e-01 -7.6389833859e-09 -2.1261019216e-01 1.0160023065e+01 8.6411480367e-08 -5.2125265517e-11 -8.7176163327e-10 9.5422329036e+00" dipole_derivatives="-5.3534343146e-01 3.1193363781e-03 6.2038915671e-11 -1.8248943768e-02 -3.7745297923e-01 8.5783852244e-08 1.4248417863e-11 -4.2070253527e-10 -6.5869617001e-01 2.6872043744e-01 7.2488993578e-02 7.9948991871e-08 5.1746131894e-02 1.8978847464e-01 -4.2887610130e-08 -6.4785532891e-11 1.8940664409e-10 3.2757883362e-01 2.6662382530e-01 -7.5607595337e-02 -8.0008707992e-08 -3.3496309746e-02 1.8766545078e-01 -4.2876438511e-08 6.2514023806e-11 2.2755510570e-10 3.3112094968e-01" charge=0 multiplicity=1 method=b3lyp basis=def2-svpd config_type=h2o sample_index=3 temperature=500.0 units=atomic
O         0.0018089019      -0.0645171210       0.0000000001  -2.395986432965e-02   3.220129564089e-02  -4.286784374811e-11
H        -0.8443511412       0.5230491589      -0.0000000006   5.057233941769e-02  -2.461912318995e-02   2.629860299777e-11
H         0.8156425550       0.5008843702      -0.0000000009  -2.661699629914e-02  -7.577302578261e-03   1.655058618458e-11
3
Properties=species:S:1:pos:R:3:forces:R:3 energy=-7.637729577897e+01 dipole="-1.0311390579e-02 7.5463451318e-01 7.6845622983e-10" quadrupole="-3.5160720558e+00 -3.0729590711e-02 3.0656959203e-10 -3.0729590711e-02 -4.6165317257e+00 1.1149791536e-09 3.0656959203e-10 1.1149791536e-09 -5.7596800818e+00" polarizability="9.5213507842e+00 -1.4561413903e-01 1.7983689353e-09 -1.4561365017e-01 9.2468917891e+00 -3.0261567134e-08 -7.5004748103e-11 1.9786073648e-10 9.0315449824e+00" dipole_derivatives="-5.2656605521e-01 2.7119195665e-03 -6.4718022608e-10 -1.1808412999e-02 -3.7205989540e-01 6.8970967826e-08 1.5384984534e-11 3.2487218576e-10 -6.7709095973e-01 2.6472540159e-01 6.2365029265e-02 5.1251974886e-08 6.7180083463e-02 1.8698816599e-01 -3.4255265291e-08 5.8064565296e-11 -1.4316393686e-10 3.3654110210e-01 2.6184012522e-01 -6.5076607101e-02 -5.0608656155e-08 -5.5371837443e-02 1.8507216866e-01 -3.4727373754e-08 -6.8270285401e-11 -1.6824215468e-10 3.4054943456e-01" charge=0 multiplicity=1 method=b3lyp basis=def2-svpd config_type=h2o sample_index=4 temperature=500.0 units=atomic
O         0.0013807793      -0.0660107355      -0.0000000001  -2.948260734526e-02  -3.593818542496e-02  -4.107689885872e-11
H        -0.7337330753       0.5322995298       0.0000000004  -2.005131857467e-02   6.044580570255e-03   3.153278573085e-12
H         0.7118191053       0.5153387456       0.0000000006   4.952920045053e-02   2.989751834108e-02   3.795211778080e-11
3
Properties=species:S:1:pos:R:3:forces:R:3 energy=-7.637646103986e+01 dipole="-3.2492785253e-02 7.1138668779e-01 -6.3704574806e-11" quadrupole="-3.2148223434e+00 -9.0326819586e-02 1.6712693831e-10 -9.0326819586e-02 -4.8325649145e+00 -9.9070356881e-11 1.6712693831e-10 -9.9070356881e-11 -5.8241254074e+00" polarizability="1.0289576762e+01 -4.1147463365e-01 -5.3707535900e-10 -4.1147405876e-01 9.5521654521e+00 3.2712926307e-09 9.9421583840e-11 -5.1795276445e-11 9.2447034739e+00" dipole_derivatives="-5.5630171205e-01 7.8444187662e-03 1.0742101653e-10 -3.7712966604e-02 -3.9324067121e-01 -2.3675766903e-07 2.4512919379e-11 -2.7876127033e-11 -6.8252656634e-01 2.8209340941e-01 6.5121794360e-02 -2.2217724882e-07 6.2028929296e-02 1.9958519264e-01 1.1631894059e-07 -8.7474062625e-12 1.6142100828e-11 3.3719045570e-01 2.7420761695e-01 -7.2965455130e-02 2.2206389505e-07 -2.4314990406e-02 1.9365618741e-01 1.2043564757e-07 -2.3778620341e-12 8.8979044255e-12 3.4533693395e-01" charge=0 multiplicity=1 method=b3lyp basis=def2-svpd config_type=h2o sample_index=5 temperature=500.0 units=atomic
O         0.0038709912      -0.0617582313       0.0000000000  -7.271792639556e-02  -1.819378220177e-02  -2.832423569581e-12
H        -0.8179271574       0.5136313958      -0.0000000001   3.425261810323e-02  -1.672535026139e-02   3.538717338172e-12
H         0.7564917187       0.4665165522      -0.0000000000   3.845966500779e-02   3.491829044173e-02  -6.873141590406e-13
3
Properties=species:S:1:pos:R:3:forces:R:3 energy=-7.637891438456e+01 dipole="1.5993960383e-02 7.2986082728e-01 2.5627306835e-10" quadrupole="-3.3479098992e+00 4.5007393165e-02 3.2520072362e-10 4.5007393165e-02 -4.7410930834e+00 4.0365158803e-10 3.2520072362e-10 4.0365158803e-10 -5.7949000575e+00" polarizability="9.9197453869e+00 2.0954210295e-01 -8.9729050889e-10 2.0954146027e-01 9.4037408263e+00 -1.1163213573e-08 1.7057105356e-10 1.1605139516e-10 9.1467465324e+00" dipole_derivatives="-5.4327022326e-01 -3.9418852742e-03 -1.3113919672e-09 1.8325885666e-02 -3.8438860610e-01 -2.3510468572e-07 1.5702457968e-11 1.0820991016e-10 -6.8049791450e-01 2.6956276108e-01 6.8370694826e-02 -1.9354554071e-07 4.1844279226e-02 1.9070572685e-01 1.1851537807e-07 5.3628064074e-12 -4.3942943447e-11 3.4266424378e-01 2.7370784630e-01 -6.4429586571e-02 1.9485357772e-07 -6.0171088232e-02 1.9368331004e-01 1.1659447019e-07 -2.9167369036e-11 -5.8348830092e-11 3.3783449170e-01" charge=0 multiplicity=1 method=b3lyp basis=def2-svpd config_type=h2o sample_index=6 temperature=500.0 units=atomic
O        -0.0019950686      -0.0635280442      -0.0000000000   3.955449627856e-02  -2.302361931511e-02  -3.048101560613e-12
H        -0.7434711226       0.4921672456       0.0000000001  -3.415204142129e-02   2.634001535602e-02   4.865755690161e-12
H         0.7751343085       0.5160689173       0.0000000003  -5.395123090590e-03  -3.312163489407e-03  -1.835113690621e-12
3
Properties=species:S:1:pos:R:3:forces:R:3 energy=-7.636400260694e+01 dipole="2.0637860388e-02 7.5381128663e-01 1.5695876657e-09" quadrupole="-3.6171870435e+00 5.6781798276e-02 9.2272083097e-10 5.6781798276e-02 -4.5566198700e+00 2.3900462465e-09 9.2272083097e-10 2.3900462465e-09 -5.6761000809e+00" polarizability="8.7769830492e+00 2.6489131371e-01 -4.4367679082e-09 2.6489092005e-01 8.7303511173e+00 -4.0439547182e-08 5.4928951399e-10 9.5681165265e-12 8.7756444651e+00" dipole_derivatives="-5.3659615076e-01 -6.0964801757e-03 -1.1075904083e-08 2.1722143100e-02 -3.7990254735e-01 -4.6023015954e-07 1.1200009195e-10 6.6696620008e-10 -6.9436535268e-01 2.6496123757e-01 6.4885534099e-02 -2.9939700719e-07 5.5093235462e-02 1.8765582622e-01 2.3278196037e-07 8.0204289081e-11 -3.1427485282e-10 3.5159914884e-01 2.7163624044e-01 -5.8787866431e-02 3.1042793336e-07 -7.6814227783e-02 1.9224635954e-01 2.2745423600e-07 -1.8688087552e-10 -3.3478745135e-10 3.4276775553e-01" charge=0 multiplicity=1 method=b3lyp basis=def2-svpd config_type=h2o sample_index=7 temperature=500.0 units=atomic
O        -0.0027301738      -0.0643159950      -0.0000000001   7.547423085396e-02  -1.108995519313e-01  -2.002319320150e-10
H        -0.6597481280       0.4939625072       0.0000000008  -1.267796664606e-01   8.711610453313e-02   1.309689144537e-10
H         0.7030779672       0.5267790070       0.0000000014   5.130801302931e-02   2.378319228082e-02   6.929670090394e-11
3
Properties=species:S:1:pos:R:3:forces:R:3 energy=-7.637718025312e+01 dipole="-2.1448741144e-02 7.5510786045e-01 4.4549267176e-10" quadrupole="-3.4831410314e+00 -6.4636327818e-02 1.4917299023e-10 -6.4636327818e-02 -4.6312220259e+00 7.3287864683e-10 1.4917299023e-10 7.3287864683e-10 -5.7830961584e+00" polarizability="9.7670074357e+00 -3.0958485747e-01 2.4763240232e-09 -3.0958428675e-01 9.4070945326e+00 -2.0251729174e-08 -1.2908250547e-10 1.5290513671e-10 9.1059711772e+00" dipole_derivatives="-5.2311919426e-01 5.4133239005e-03 -4.3645642656e-11 -2.4947858478e-02 -3.6899297987e-01 -5.3722915005e-08 -1.2955647351e-11 1.7979698273e-10 -6.7242814949e-01 2.6433959040e-01 6.1939374054e-02 -3.9151071274e-08 7.2269251167e-02 1.8640664217e-01 2.6198127001e-08 3.7538339905e-11 -8.1225307039e-11 3.3216852912e-01 2.5877981424e-01 -6.7352742903e-02 3.9191955237e-08 -4.7321512893e-02 1.8258646036e-01 2.7523927582e-08 -3.4531106663e-11 -9.8919894326e-11 3.4026132168e-01" charge=0 multiplicity=1 method=b3lyp basis=def2-svpd config_type=h2o sample_index=8 temperature=500.0 units=atomic
O         0.0028787943      -0.0665279440      -0.0000000000  -5.693093045646e-02  -2.323273709966e-02  -1.842386570624e-11
H        -0.7576410807       0.5454726899       0.0000000003   4.248259432821e-03  -1.123808427460e-02  -6.309013050882e-12
H         0.7119525255       0.5103740587       0.0000000004   5.267604698651e-02   3.447002731063e-02   2.474611042396e-11
3
Properties=species:S:1:pos:R:3:forces:R:3 energy=-7.637487005508e+01 dipole="9.2245236954e-03 8.0227017573e-01 8.6652220152e-10" quadrupole="-3.7523310682e+00 3.0637545207e-02 2.9989925961e-10 3.0637545207e-02 -4.4175452199e+00 1.4293648917e-09 2.9989925961e-10 1.4293648917e-09 -5.7694687234e+00" polarizability="9.5347999689e+00 1.5560387136e-01 -2.4605994838e-09 1.5560337817e-01 9.4737318753e+00 -4.7565641383e-08 2.3127590078e-10 4.7126523276e-10 9.0559377951e+00" dipole_derivatives="-4.9016718609e-01 -2.2825690151e-03 -5.8416119164e-10 1.0681549558e-02 -3.4333505858e-01 -8.4711959669e-08 5.3346812801e-11 3.3426321505e-10 -6.5577968914e-01 2.4410125575e-01 6.3495920376e-02 -4.6350367988e-08 7.2662376399e-02 1.7096449200e-01 4.2764264352e-08 6.6820812356e-11 -1.6351103789e-10 3.3037737621e-01 2.4606655772e-01 -6.1212786800e-02 4.6934678366e-08 -8.3342738147e-02 1.7237039317e-01 4.1939368645e-08 -1.0029469324e-10 -1.7303623700e-10 3.2540244735e-01" charge=0 multiplicity=1 method=b3lyp basis=def2-svpd config_type=h2o sample_index=9 temperature=500.0 units=atomic
O        -0.0014155497      -0.0724591546      -0.0000000001   2.600845643133e-02  -1.082482156515e-02  -8.205450754500e-12
H        -0.6748347998       0.5665446503       0.0000000005  -5.036172393633e-02   1.732677057498e-02   1.201640993586e-11
H         0.6973006015       0.5834347161       0.0000000007   2.435013843424e-02  -6.501917686416e-03  -3.787002541716e-12
3
Properties=species:S:1:pos:R:3:forces:R:3 energy=-7.637493095278e+01 dipole="-3.6644735539e-03 8.2399804930e-01 4.2182309757e-10" quadrupole="-3.8157154197e+00 -1.3972732319e-02 -1.4675861206e-10 -1.3972732319e-02 -4.3469264367e+00 8.1465390986e-10 -1.4675861206e-10 8.1465390986e-10 -5.8181086794e+00" polarizability="9.9699497704e+00 -7.3485973376e-02 7.2766294908e-10 -7.3485639034e-02 9.9121076940e+00 -3.4514669738e-08 -9.0476718148e-11 3.6411181025e-10 9.2103137359e+00" dipole_derivatives="-4.6867050000e-01 8.9987959241e-04 1.6988233736e-09 -4.5469614669e-03 -3.2630529327e-01 -1.4967876938e-07 -2.5502881541e-11 1.5877710760e-10 -6.3810563547e-01 2.3465966727e-01 6.2614960765e-02 -7.7454473391e-08 8.6132903822e-02 1.6334502945e-01 7.5215528250e-08 4.9862480597e-11 -8.3328030614e-11 3.1790397468e-01 2.3401009786e-01 -6.3515815779e-02 7.5758760376e-08 -8.1586150804e-02 1.6295992146e-01 7.4446990239e-08 -3.5673851186e-11 -7.6045164523e-11 3.2019940495e-01" charge=0 multiplicity=1 method=b3lyp basis=def2-svpd config_type=h2o sample_index=10 temperature=500.0 units=atomic
O         0.0006179210      -0.0764771516      -0.0000000000  -9.351696939949e-03   3.109960128920e-02   1.655050383138e-11
H        -0.6950115015       0.6107403643       0.0000000004  -1.353819284557e-02  -1.995834685097e-02  -9.269306166385e-12
H         0.6852046464       0.6030075298       0.0000000003   2.289507957107e-02  -1.114553123696e-02  -7.295463361842e-12
3
Properties=species:S:1:pos:R:3:forces:R:3 energy=-7.637614591139e+01 dipole="3.0895426031e-02 7.2775410778e-01 2.5606846038e-10" quadrupole="-3.3342801972e+00 8.6704655219e-02 3.2876746610e-10 8.6704655219e-02 -4.7480074949e+00 4.0373030467e-10 3.2876746610e-10 4.0373030467e-10 -5.7933913660e+00" polarizability="9.9321816918e+00 4.0170382092e-01 -1.8704200849e-09 4.0170330727e-01 9.4020724447e+00 -1.1452836034e-08 2.3460115795e-10 1.3792611637e-10 9.1445119718e+00" dipole_derivatives="-5.4523608798e-01 -7.6799776944e-03 -1.9966042708e-09 3.5341598634e-02 -3.8540008046e-01 -9.1713969752e-08 1.9240352543e-11 9.1298192823e-11 -6.8213790073e-01 2.6856809235e-01 7.0490064234e-02 -7.5453365778e-08 3.2098377538e-02 1.8979210879e-01 4.6156564681e-08 2.0797356067e-12 -4.5338504853e-11 3.4566582828e-01 2.7666741094e-01 -6.2810501369e-02 7.7465645010e-08 -6.7440700254e-02 1.9560860981e-01 4.5562428830e-08 -3.0393681283e-11 -5.6298176843e-11 3.3647368426e-01" charge=0 multiplicity=1 method=b3lyp basis=def2-svpd config_type=h2o sample_index=11 temperature=500.0 units=atomic
O        -0.0038296390      -0.0632176261      -0.0000000000   7.717628672531e-02  -3.027407730851e-02  -1.156956722806e-12
H        -0.7303490503       0.4785995204       0.0000000001  -5.686360863659e-02   4.391254705448e-02   8.348905745070e-12
H         0.7911281999       0.5247100815       0.0000000003  -2.030581218518e-02  -1.364090586189e-02  -7.185269794786e-12
3
Properties=species:S:1:pos:R:3:forces:R:3 energy=-7.637615446820e+01 dipole="1.3943743831e-02 7.2568316322e-01 8.4889885107e-10" quadrupole="-3.3960014749e+00 3.7572264716e-02 4.8277690886e-10 3.7572264716e-02 -4.7220635974e+00 1.1654141744e-09 4.8277690886e-10 1.1654141744e-09 -5.7474193063e+00" polarizability="9.4479941441e+00 1.7111631549e-01 -1.9707652724e-09 1.7111580270e-01 9.0990810962e+00 -2.7292574014e-08 2.8342941372e-10 1.4758448999e-10 9.0000324532e+00" dipole_derivatives="-5.5249240283e-01 -3.7019706954e-03 4.1939264561e-09 1.5313453664e-02 -3.9224001189e-01 3.7972874845e-07 3.8582907791e-11 3.1282818084e-10 -6.9211440098e-01 2.7414653648e-01 6.6599114022e-02 3.0754987446e-07 4.4592594454e-02 1.9469285424e-01 -1.9065964085e-07 3.8121966946e-11 -1.6648758050e-10 3.4822848112e-01 2.7834606931e-01 -6.2897484668e-02 -3.1174052229e-07 -5.9906873348e-02 1.9754765930e-01 -1.8907193866e-07 -8.2051189385e-11 -1.8229274438e-10 3.4388594914e-01" charge=0 multiplicity=1 method=b3lyp basis=def2-svpd config_type=h2o sample_index=12 temperature=500.0 units=atomic
O        -0.0017115861      -0.0621022286      -0.0000000001   3.990893565863e-02  -5.577880708908e-02  -5.754639400267e-11
H        -0.7247294385       0.4825655208       0.0000000004  -5.946418452620e-02   4.291626067064e-02   3.893133782085e-11
H         0.7518935519       0.5030419132       0.0000000007   1.956104205891e-02   1.286682756745e-02   1.866369088924e-11
3
Properties=species:S:1:pos:R:3:forces:R:3 energy=-7.636980265568e+01 dipole="-3.0819161205e-02 7.8193216760e-01 -1.0777995128e-09" quadrupole="-3.3963478418e+00 -1.1174925694e-01 -9.3034198789e-10 -1.1174925694e-01 -4.6109111927e+00 -1.8068954257e-09 -9.3034198789e-10 -1.8068954257e-09 -5.9394358948e+00" polarizability="1.1556534492e+01 -5.9965391343e-01 -2.8557862451e-08 -5.9965357498e-01 1.0631727376e+01 1.4741018195e-07 7.6199558895e-12 -1.1615940184e-09 9.6155841998e+00" dipole_derivatives="-4.7492604800e-01 6.5842753444e-03 2.2759572005e-12 -4.0637796166e-02 -3.3421916029e-01 -1.7492921001e-07 -5.6550857845e-12 -4.2615248188e-10 -6.2948072602e-01 2.3911837008e-01 6.8000226965e-02 -1.2135971394e-07 8.2861993060e-02 1.6871023724e-01 8.5281899598e-08 -8.5946334227e-11 1.6599226948e-10 3.0839250451e-01 2.3580658737e-01 -7.4584795933e-02 1.2137300887e-07 -4.2224370527e-02 1.6551030057e-01 8.9651591706e-08 9.5328933596e-11 2.4899494091e-10 3.2108949289e-01" charge=0 multiplicity=1 method=b3lyp basis=def2-svpd config_type=h2o sample_index=13 temperature=500.0 units=atomic
O         0.0046955436      -0.0736299126       0.0000000001  -5.077341151678e-02   6.296452890916e-02  -6.620252161153e-11
H        -0.8328581058       0.6128372931      -0.0000000005   5.973590927507e-02  -5.205059097021e-02   4.710491830962e-11
H         0.7583364206       0.5557228513      -0.0000000011  -8.964991043445e-03  -1.092070150047e-02   1.906579101445e-11
3
Properties=species:S:1:pos:R:3:forces:R:3 energy=-7.636796131896e+01 dipole="3.0810457809e-02 7.3325843934e-01 1.2462500181e-09" quadrupole="-3.4738732400e+00 8.2754367282e-02 7.9942664338e-10 8.2754367282e-02 -4.6639629154e+00 1.7979934424e-09 7.9942664338e-10 1.7979934424e-09 -5.7099650656e+00" polarizability="9.1140419508e+00 3.7704443939e-01 -5.7413371749e-09 3.7704404822e-01 8.9025137065e+00 -3.5315446408e-08 7.0357039117e-10 1.3976025894e-10 8.8855570367e+00" dipole_derivatives="-5.4964581573e-01 -8.7187766725e-03 -2.4074700566e-09 3.3014775901e-02 -3.8986868284e-01 -1.4415024729e-08 1.0400650686e-10 5.2367909323e-10 -6.9702767857e-01 2.6981712191e-01 6.7848867166e-02 -1.0556083785e-08 3.9776067181e-02 1.9158692339e-01 6.5942112881e-09 4.2235569581e-11 -2.5385152313e-10 3.5390075093e-01 2.7982930140e-01 -5.9129182666e-02 1.2935569282e-08 -7.2790694454e-02 1.9828200982e-01 7.8274192683e-09 -1.4147188336e-10 -2.6187854653e-10 3.4312974447e-01" charge=0 multiplicity=1 method=b3lyp basis=def2-svpd config_type=h2o sample_index=14 temperature=500.0 units=atomic
O        -0.0038542501      -0.0623408512      -0.0000000001   1.006286174087e-01  -9.092459344653e-02  -1.237021483824e-10
H        -0.6843557341       0.4714874628       0.0000000006  -1.179127045922e-01   8.465594581851e-02   1.080588971685e-10
H         0.7455254794       0.5179070850       0.0000000011   1.728792972746e-02   6.265604232368e-03   1.566975237258e-11
3
Properties=species:S:1:pos:R:3:forces:R:3 energy=-7.637951320759e+01 dipole="-1.3249192101e-02 7.5199409109e-01 1.2612350529e-10" quadrupole="-3.4295569628e+00 -4.0607296329e-02 -1.3008458299e-12 -4.0607296329e-02 -4.6646483109e+00 2.0840087725e-10 -1.3008458299e-12 2.0840087725e-10 -5.8125994573e+00" polarizability="1.0067082076e+01 -1.9554577358e-01 5.0311397481e-10 -1.9554511227e-01 9.5827786501e+00 -6.6653051723e-09 -3.0799851556e-11 6.4023407960e-11 9.1985935611e+00" dipole_derivatives="-5.2166325071e-01 3.2242258683e-03 -7.5336265004e-10 -1.5778896894e-02 -3.6803673560e-01 -1.3750076078e-07 -2.5183448914e-11 7.4602204469e-11 -6.6750020049e-01 2.6241456482e-01 6.4350417493e-02 -1.0477319012e-07 6.5481123794e-02 1.8512920037e-01 6.7455901975e-08 1.0778792449e-11 -2.4077350479e-11 3.3138153445e-01 2.5924874011e-01 -6.7573608052e-02 1.0552925200e-07 -4.9701916170e-02 1.8290759785e-01 7.0052907919e-08 -8.3001940000e-12 -2.5907663877e-11 3.3611887424e-01" charge=0 multiplicity=1 method=b3lyp basis=def2-svpd config_type=h2o sample_index=15 temperature=500.0 units=atomic
O         0.0017728102      -0.0667278086      -0.0000000000  -3.194984648727e-02  -3.252660317230e-03  -6.235607573058e-13
H        -0.7660454160       0.5403663250       0.0000000001   8.293626382495e-03  -1.095839467863e-02  -1.818223247537e-12
H         0.7379096310       0.5186524199       0.0000000001   2.364893169746e-02   1.421533082538e-02   2.443702009304e-12
3
Properties=species:S:1:pos:R:3:forces:R:3 energy=-7.636839820111e+01 dipole="-5.9260835595e-02 6.8790949576e-01 -7.0834127803e-10" quadrupole="-3.0081604243e+00 -1.6163925164e-01 -1.5461126371e-10 -1.6163925164e-01 -4.9572882235e+00 -8.9145804396e-10 -1.5461126371e-10 -8.9145804396e-10 -5.8803929700e+00" polarizability="1.1064145415e+01 -7.2996955664e-01 -1.4402638715e-08 -7.2996941685e-01 9.8801778116e+00 4.3446580769e-08 5.7821248089e-10 -3.8112374298e-10 9.4356147823e+00" dipole_derivatives="-5.7023544809e-01 1.3258372738e-02 4.3072351241e-09 -7.0120044216e-02 -4.0130584144e-01 -9.8998864662e-08 4.0690032964e-11 -2.9074609675e-10 -6.8052447677e-01 2.9059676012e-01 6.7491957758e-02 -1.0535597395e-07 6.7510099118e-02 2.0575228168e-01 5.0593862433e-08 -6.5140278111e-11 1.2630491297e-10 3.3468714577e-01 2.7963777594e-01 -8.0750966054e-02 1.0105760673e-07 2.6104714969e-03 1.9555324016e-01 4.8397785779e-08 4.8364687997e-12 1.6512070372e-10 3.4583565223e-01" charge=0 multiplicity=1 method=b3lyp basis=def2-svpd config_type=h2o sample_index=16 temperature=500.0 units=atomic
O         0.0066822597      -0.0599399070       0.0000000001  -1.087517794637e-01  -9.623548386449e-03   2.202027340302e-11
H        -0.8847827990       0.5162221512      -0.0000000004   7.055529167661e-02  -3.133582306088e-02   2.474749290332e-11
H         0.7787304883       0.4350676697      -0.0000000005   3.819696816947e-02   4.096062665144e-02  -4.680133298881e-11
3
Properties=species:S:1:pos:R:3:forces:R:3 energy=-7.637157589746e+01 dipole="5.0001760779e-02 7.2349646370e-01 -4.4141824488e-10" quadrupole="-3.1971124189e+00 1.4594887949e-01 -1.8322528508e-10 1.4594887949e-01 -4.8132995039e+00 -6.9737693732e-10 -1.8322528508e-10 -6.9737693732e-10 -5.8644449618e+00" polarizability="1.0792925292e+01 6.9379090220e-01 8.4579692237e-09 6.9379074666e-01 9.8760964358e+00 3.0215354151e-08 -4.6997740821e-10 -3.2743930198e-10 9.3762625402e+00" dipole_derivatives="-5.3861729944e-01 -1.1293804519e-02 2.4376334284e-10 6.0106581590e-02 -3.7869733442e-01 -9.6215396761e-08 -3.4345424861e-11 -1.6997207940e-10 -6.6929146559e-01 2.6448005149e-01 7.6655435766e-02 -8.6999935034e-08 1.4038897007e-02 1.8519414103e-01 4.9224832543e-08 -6.1845521185e-12 9.2653817670e-11 3.4125298183e-01 2.7413557512e-01 -6.5360698249e-02 8.6774892827e-08 -7.4144977140e-02 1.9350311807e-01 4.6999681924e-08 4.6794508138e-11 8.4116121257e-11 3.2803796509e-01" charge=0 multiplicity=1 method=b3lyp basis=def2-svpd config_type=h2o sample_index=17 temperature=500.0 units=atomic
O        -0.0061952051      -0.0641016662       0.0000000000   9.978563484788e-02  -1.796755573001e-03  -2.327128025801e-12
H        -0.7521383372       0.4713012660      -0.0000000003  -4.054215579036e-02   3.705721052639e-02  -2.114254618630e-11
H         0.8504607384       0.5460386939      -0.0000000004  -5.924174895356e-02  -3.526435478384e-02   2.345039937430e-11
3
Properties=species:S:1:pos:R:3:forces:R:3 energy=-7.637759400033e+01 dipole="-1.6680678652e-02 7.1768872475e-01 4.5800471295e-10" quadrupole="-3.3244636001e+00 -4.5657704840e-02 4.8046315612e-10 -4.5657704840e-02 -4.7712907263e+00 6.8737880572e-10 4.8046315612e-10 6.8737880572e-10 -5.7724701344e+00" polarizability="9.7082695180e+00 -2.0553097042e-01 1.5401282133e-09 -2.0553037370e-01 9.2352838633e+00 -1.5775861046e-08 -9.2873392667e-13 5.7270056225e-11 9.0795223200e+00" dipole_derivatives="-5.5693549549e-01 4.3583341096e-03 -7.7364850637e-10 -1.8733893066e-02 -3.9520201775e-01 -6.5749905520e-09 9.4017145456e-12 1.8676818519e-10 -6.9045217063e-01 2.8089469869e-01 6.3945643232e-02 -8.5106643954e-09 5.7617866927e-02 1.9924625815e-01 3.0016683583e-09 2.4062809581e-11 -7.9259902251e-11 3.4285298950e-01 2.7604132570e-01 -6.8303460517e-02 9.2648944072e-09 -3.8882842888e-02 1.9595623199e-01 3.5814823329e-09 -4.0034436374e-11 -1.1187643863e-10 3.4759980643e-01" charge=0 multiplicity=1 method=b3lyp basis=def2-svpd config_type=h2o sample_index=18 temperature=500.0 units=atomic
O         0.0020127788      -0.0615682440      -0.0000000000  -4.427172575225e-02  -4.185670394193e-02  -3.611215430715e-11
H        -0.7723901894       0.5008728126       0.0000000002  -3.231371817229e-03   4.748868704511e-03   2.379026929541e-12
H         0.7404459296       0.4762598982       0.0000000005   4.749687599909e-02   3.711151466687e-02   3.377888974883e-11
3
Properties=species:S:1:pos:R:3:forces:R:3 energy=-7.637643942017e+01 dipole="-1.2937205427e-02 7.5735200767e-01 8.3317927834e-10" quadrupole="-3.5363666791e+00 -3.8566897494e-02 4.5795565063e-10 -3.8566897494e-02 -4.6012526288e+00 1.2249281793e-09 4.5795565063e-10 1.2249281793e-09 -5.7540370553e+00" polarizability="9.4651008467e+00 -1.8329214650e-01 2.3965585348e-09 -1.8329162190e-01 9.2201218639e+00 -3.2202867607e-08 -1.0069814647e-10 1.8669204422e-10 9.0136888906e+00" dipole_derivatives="-5.2507247964e-01 3.4182068012e-03 3.1865864114e-09 -1.4749919080e-02 -3.7086882546e-01 -3.8440908789e-07 1.5326479674e-11 3.3516270832e-10 -6.7711906885e-01 2.6435020611e-01 6.1724846105e-02 -2.6871568859e-07 6.9843089096e-02 1.8664379508e-01 1.9047927124e-07 6.1029477790e-11 -1.5061773980e-10 3.3597903092e-01 2.6072189075e-01 -6.5143025995e-02 2.6550678323e-07 -5.5093542590e-02 1.8422537078e-01 1.9392902562e-07 -7.8917520258e-11 -1.8798883772e-10 3.4114021659e-01" charge=0 multiplicity=1 method=b3lyp basis=def2-svpd config_type=h2o sample_index=19 temperature=500.0 units=atomic
O         0.0017438664      -0.0662491037      -0.0000000001  -3.768233206891e-02  -3.972377159496e-02  -5.236112527220e-11
H        -0.7316426963       0.5363884019       0.0000000004  -1.977840639404e-02   4.470470310954e-03   4.766613143260e-13
H         0.7039662711       0.5150329486       0.0000000007   5.745587092251e-02   3.525591115015e-02   5.187296538174e-11
3