7
Properties=species:S:1:pos:R:3:forces:R:3 energy=-6.998732594537e+02 dipole="2.1337414861e-02 -1.8076909929e-02 -1.4697889402e+00" quadrupole="-2.6395490257e+01 -3.1261175994e+00 1.8590618341e-01 -3.1261175994e+00 -2.8769933450e+01 5.9217468483e-01 1.8590618341e-01 5.9217468483e-01 -2.4386610904e+01" polarizability="3.8439417893e+01 -1.1878947967e-01 -1.1526476965e+00 -1.1878697650e-01 4.2132362466e+01 2.4631466842e+00 -1.1526475740e+00 2.4631480462e+00 3.9756068685e+01" dipole_derivatives="2.1993074368e+00 -1.0830601036e-01 -7.6111726883e-02 3.4711752104e-02 2.1442525021e+00 -2.7868921417e-02 3.0787703802e-03 5.2053166316e-02 2.2603218558e+00 -5.0629376933e-01 3.9961762053e-02 9.7074795454e-04 -4.1088242525e-02 -9.0398540001e-01 -2.4249884169e-01 -2.9729124538e-02 -1.5508967433e-01 -6.4523718991e-01 -5.2699467626e-01 -3.7707423152e-02 6.1138322074e-02 3.8984170079e-02 -9.3109750570e-01 3.3431626758e-01 -1.0949032840e-02 1.2738376205e-01 -6.7966940673e-01 -8.3222504096e-01 1.1033860108e-01 3.5877251263e-01 1.1588768129e-01 -4.2376519753e-01 -3.6653925112e-02 4.2371091701e-01 -2.8674512762e-02 -8.1764051135e-01 -9.4393496163e-01 7.7253592666e-02 -3.4261285956e-01 6.2967065651e-03 -3.6560206617e-01 -6.4914907948e-02 -3.8499710553e-01 -2.3048361610e-02 -7.7560337874e-01 2.8684941307e-01 -4.8953856009e-02 -9.3717410195e-03 -8.4983504612e-02 2.7521306560e-01 3.1034668370e-02 -2.7305998524e-02 6.3021997292e-04 3.3903988084e-01 3.2352724172e-01 -3.2587233064e-02 7.2716510107e-03 -6.9788877694e-02 2.0500894096e-01 6.6261199246e-03 2.6243157481e-02 2.6754444099e-02 3.1881423052e-01" charge=0 multiplicity=1 method=b3lyp basis=def2-svpd config_type=h2so4 sample_index=0 temperature=500.0 units=atomic
S         0.0376551046       0.0282872988       0.1563856778  -2.001227516914e-02   1.452992804219e-02   9.518461429403e-03
O         0.0030244653       1.3526878427       0.8498400760   6.687913192539e-03  -4.372734302703e-02  -2.530234740492e-02
O        -0.1223414027      -1.2786928611       0.7520606440   2.914604515654e-02  -8.598795361211e-03   2.903956389909e-02
O         1.3219367424       0.0610000951      -0.9029699314  -3.324728812309e-02  -7.212249341736e-02  -3.951771323769e-02
O        -1.2630941355      -0.1780542414      -0.8343769791   1.062645167320e-02   2.049675064365e-02  -7.874957061049e-03
H         1.1306775723      -0.8743700482      -1.5339076737   1.983157923479e-02   7.331093357379e-02   4.975883117937e-02
H        -1.3654702443       0.6603687462      -1.2776158330  -1.294798919652e-02   1.589527541656e-02  -1.550414960815e-02
7
Properties=species:S:1:pos:R:3:forces:R:3 energy=-6.998406657421e+02 dipole="7.9131823460e-02 -1.2760493171e-01 -1.3719301231e+00" quadrupole="-2.4252641474e+01 -4.4203595790e+00 -1.4821773735e+00 -4.4203595790e+00 -2.7831692185e+01 6.8512802704e-01 -1.4821773735e+00 6.8512802704e-01 -2.5009427217e+01" polarizability="4.1419137371e+01 -3.9512603371e+00 -1.9474017756e+00 -3.9512645884e+00 4.2465915504e+01 2.5347852528e+00 -1.9474037990e+00 2.5347876025e+00 4.1365504366e+01" dipole_derivatives="2.4853800657e+00 -2.9656110512e-01 -1.4149591401e-01 4.6943744583e-02 2.1500607261e+00 -1.0694305594e-01 2.8986302099e-02 -4.9004286538e-02 2.3353623179e+00 -5.8062527891e-01 7.9598919434e-02 1.5399323717e-02 -8.2432033428e-02 -8.9599711770e-01 -2.5421599262e-01 -7.7310185066e-02 -1.6143968495e-01 -7.0001912274e-01 -5.6191569068e-01 4.0674296078e-03 2.8204092788e-02 1.9271692880e-02 -9.7096930464e-01 3.1377542094e-01 -7.3094270046e-03 2.1601093959e-01 -7.1425966865e-01 -9.8319794543e-01 1.3004311329e-01 4.2387658137e-01 6.2427956095e-02 -3.9130464384e-01 4.7355226922e-02 4.5529384148e-01 -2.1697497582e-02 -8.2500632477e-01 -1.0277916973e+00 1.3188136884e-01 -3.2392256177e-01 7.3976483987e-02 -4.2513119827e-01 4.7895383496e-02 -3.9476212986e-01 7.9792829552e-02 -7.3026960119e-01 3.2575536444e-01 -2.2818228586e-02 -5.3500165616e-03 -5.7033882203e-02 2.6738953417e-01 -1.4443010846e-02 -2.3394386572e-02 -3.7477336663e-02 3.3146010966e-01 3.4222615491e-01 -2.6057684543e-02 3.3617468017e-03 -6.2935630299e-02 2.6594616946e-01 -3.3345823330e-02 1.8619226017e-02 -2.6138722021e-02 3.0266025730e-01" charge=0 multiplicity=1 method=b3lyp basis=def2-svpd config_type=h2so4 sample_index=1 temperature=500.0 units=atomic
S         0.0422406122      -0.0353421515       0.1413829237  -3.684965016384e-02   1.207330031476e-01  -5.100601198139e-02
O        -0.0567532172       1.2831876963       0.8141489658   1.828451667092e-02  -2.394683959785e-02  -1.096905313337e-02
O        -0.0385766884      -1.2320532138       0.8213947849   6.928167769050e-03  -9.761225758411e-02   5.113338203107e-02
O         1.3146691790       0.0516153414      -0.8724270729   1.165085134471e-02  -6.337289141192e-02  -6.638945185951e-02
O        -1.2865888920      -0.0469750755      -0.8821766604  -2.129526244719e-02   8.719600102573e-02  -1.471377850288e-03
H         1.4320390283      -0.8089586489      -1.7026407843  -1.800849525701e-02   6.985502862538e-02   7.744825738673e-02
H        -1.7047728299       1.0449613658      -0.8929988952   3.942708455660e-02  -9.320328634981e-02   1.477997992343e-03
7
Properties=species:S:1:pos:R:3:forces:R:3 energy=-6.998708404659e+02 dipole="1.9465363960e-01 1.9320313801e-02 -6.0479086185e-01" quadrupole="-2.3515382601e+01 -4.4186279293e+00 -1.4035840812e-01 -4.4186279293e+00 -2.7540057802e+01 3.4775956760e-01 -1.4035840812e-01 3.4775956760e-01 -2.7852376317e+01" polarizability="3.7999127532e+01 -2.3416058497e+00 -9.2693827141e-01 -2.3416032874e+00 3.9268653238e+01 1.6541907646e-01 -9.2693805653e-01 1.6541972896e-01 3.4379128545e+01" dipole_derivatives="2.4945277715e+00 -2.2518046902e-01 -2.1324884250e-02 -7.5950094504e-02 2.3071818003e+00 -3.3004974369e-02 -5.9013661569e-02 5.0759360180e-02 2.1988056755e+00 -6.0500729451e-01 8.1117528913e-02 2.1247907227e-03 1.0229034690e-02 -1.0023315577e+00 -3.2562062379e-01 -3.6206999096e-02 -1.5859363479e-01 -6.8377679496e-01 -6.0122301512e-01 2.0063187175e-02 3.7629738169e-02 1.1053726819e-02 -9.4811654496e-01 3.3762511386e-01 5.4061038982e-02 1.3195899471e-01 -6.8243766263e-01 -9.9025183274e-01 1.0819310121e-01 3.2375873602e-01 7.8240225739e-02 -4.3922234994e-01 -4.8057625813e-02 4.1644574090e-01 -8.0879783231e-02 -7.1750912326e-01 -9.9797471475e-01 7.9666764195e-02 -3.3437369630e-01 1.1973574494e-01 -4.4146382700e-01 8.6204889202e-02 -3.7245209430e-01 6.6972328506e-02 -7.3732719132e-01 3.5666354295e-01 -3.0210093101e-02 -1.4197147246e-02 -6.1127614076e-02 2.8219632283e-01 4.4092637545e-02 -1.7356715908e-02 3.0770362048e-02 3.1097485309e-01 3.4305084338e-01 -3.3592979277e-02 6.3809790673e-03 -8.2137390110e-02 2.4172740686e-01 -6.1207146660e-02 1.4511409841e-02 -4.0907523505e-02 3.1118450826e-01" charge=0 multiplicity=1 method=b3lyp basis=def2-svpd config_type=h2so4 sample_index=2 temperature=500.0 units=atomic
S         0.0090660775       0.0181860885       0.1574055233   9.128528929537e-03  -9.295530916850e-02  -6.119767764253e-02
O        -0.0347714123       1.2701680911       0.7540728049  -5.847896938880e-04   8.415278105007e-02   5.141496471332e-02
O        -0.0085580121      -1.2964512682       0.7504964965   9.595135461678e-03  -9.227817208716e-03   2.173896029681e-02
O         1.2846115983       0.0469481666      -0.8818315449   2.867712206404e-02  -8.778961175075e-02   1.432137910987e-02
O        -1.2724381891      -0.0450704520      -0.8372451380   2.658980697676e-02  -6.870261996263e-02  -3.464441988787e-03
H         1.7020169120      -1.0135552781      -0.7919060689  -3.256454933663e-02   8.647735102294e-02  -1.106781469852e-02
H        -1.4951590540       0.8239552778      -0.7972123719  -4.080626025785e-02   8.800221782279e-02  -1.173201492853e-02
7
Properties=species:S:1:pos:R:3:forces:R:3 energy=-6.998558317783e+02 dipole="2.9375368854e-01 1.5792357730e-02 -1.5289102758e+00" quadrupole="-2.4764365687e+01 -3.6041590896e+00 1.3165177762e+00 -3.6041590896e+00 -2.8572851418e+01 -5.0200596946e-01 1.3165177762e+00 -5.0200596946e-01 -2.4320229701e+01" polarizability="3.8475603164e+01 -2.2539155735e+00 1.1393309497e+00 -2.2539151002e+00 4.0662174276e+01 -2.7398293224e+00 1.1393321687e+00 -2.7398294084e+00 4.2200302407e+01" dipole_derivatives="2.3919944119e+00 -2.1715123432e-01 2.3087607572e-01 6.3485048929e-02 2.1984679728e+00 1.9283345997e-01 3.4462625123e-03 6.5398148430e-02 2.3695635156e+00 -5.4209745213e-01 4.2244674992e-02 -1.2548884709e-02 -5.3205206899e-02 -9.7290543372e-01 -3.1704185940e-01 -5.5050235680e-02 -2.0720989617e-01 -7.1650896969e-01 -5.8261434209e-01 3.2554672022e-02 -2.9905516871e-02 1.7433818292e-02 -9.4182309564e-01 2.4347402914e-01 -9.0063395756e-03 1.7383028504e-01 -7.1273224886e-01 -1.0086172293e+00 1.0844596260e-01 2.8817305182e-01 8.0324753160e-02 -4.4119746910e-01 -8.3530041574e-02 4.5684441431e-01 -8.2078854654e-02 -7.5798916034e-01 -9.3872434551e-01 9.3863552667e-02 -4.8373971448e-01 -4.0361495493e-03 -3.8022521615e-01 -1.5795149694e-01 -3.8760051803e-01 -4.8143819826e-02 -7.6269310493e-01 3.6507343258e-01 -3.8294947901e-02 -1.3035332965e-02 -8.1767688282e-02 2.8273557412e-01 5.9877219715e-02 -1.6276441156e-02 3.4094023672e-02 3.0234500341e-01 3.1497109710e-01 -2.1633048426e-02 2.0143407187e-02 -2.2172056892e-02 2.5491893084e-01 6.2373881097e-02 7.5989913672e-03 6.4099399052e-02 2.7793147395e-01" charge=0 multiplicity=1 method=b3lyp basis=def2-svpd config_type=h2so4 sample_index=3 temperature=500.0 units=atomic
S         0.0261960106       0.0323523922       0.1395336618  -1.835557734994e-02  -7.576188050098e-02  -1.879938466769e-02
O        -0.0223329227       1.2358986496       0.8493981107   9.814028126926e-03   6.596989463554e-02   3.393713494937e-02
O        -0.0551294780      -1.2784623009       0.8092321675   1.722264887007e-02   1.548100097611e-02  -6.008757020630e-03
O         1.2545143836       0.0659044106      -0.9476714029   1.926070082750e-02  -6.064133400574e-02   1.116695307160e-02
O        -1.2501296657      -0.0697862283      -0.8170632259  -2.012910688411e-02   5.698855551301e-02  -1.064116916048e-01
H         1.5984582994      -0.9317037048      -0.9226602598  -1.534598538144e-02   5.593009265468e-02  -6.377274943099e-03
H        -1.2697002602       0.6424851747      -1.8199290272   7.440118338339e-03  -5.797238719352e-02   9.258829114329e-02
7
Properties=species:S:1:pos:R:3:forces:R:3 energy=-6.997686506077e+02 dipole="-7.8205552428e-01 -1.0508386769e-02 -1.2611863601e+00" quadrupole="-2.5404560088e+01 -2.8461316737e+00 -4.3508184332e-02 -2.8461316737e+00 -2.9727707500e+01 9.6754470780e-01 -4.3508184332e-02 9.6754470780e-01 -2.3986017169e+01" polarizability="4.1447713900e+01 -5.1426000180e-01 1.4735312157e-01 -5.1425403135e-01 4.5291068720e+01 5.6392290117e+00 1.4735537405e-01 5.6392309799e+00 5.0930172033e+01" dipole_derivatives="1.9612134910e+00 -1.7670890935e-01 -4.1671635217e-01 1.1154035945e-01 1.9476438783e+00 -2.8897744478e-01 1.3914802575e-01 -6.7578168777e-02 2.2394760991e+00 -5.2347516501e-01 5.5257860673e-02 1.2840059357e-01 2.1354608162e-02 -8.4077298293e-01 -2.6962429310e-01 1.7396776678e-02 -1.4009256610e-01 -6.8682271920e-01 -5.0537158986e-01 1.5713787877e-02 5.9135930958e-02 -3.4655018683e-02 -8.9503079122e-01 4.1989766952e-01 1.4076081165e-02 1.5361666160e-01 -7.0663068609e-01 -6.8465844892e-01 8.3882830483e-02 4.6177319295e-01 -2.6921276690e-02 -3.2556609642e-01 2.0411807229e-01 2.3092404721e-01 3.7859507369e-02 -6.7925358973e-01 -9.4979897291e-01 6.1580418521e-02 -2.2637629921e-01 -1.0804752976e-02 -3.8938421158e-01 5.3351757986e-02 -4.3180136938e-01 1.0663826705e-01 -6.7725229753e-01 3.3485931203e-01 -2.6267473882e-02 -2.8453535231e-02 -1.9574946328e-02 2.3668934421e-01 -6.2217741318e-02 -3.8712755322e-03 -4.3222360901e-02 2.3791620464e-01 3.6780233400e-01 -1.3519431190e-02 2.2120713027e-02 -4.0868901083e-02 2.6644060707e-01 -5.6639415964e-02 3.4164604062e-02 -4.7281974573e-02 2.7241072782e-01" charge=0 multiplicity=1 method=b3lyp basis=def2-svpd config_type=h2so4 sample_index=4 temperature=500.0 units=atomic
S        -0.0192873056      -0.0177866924       0.1922255393   4.430549688733e-02   6.370974799776e-02  -3.535707624931e-02
O         0.0973371414       1.3761297195       0.8047059506  -2.680115547334e-02  -6.003807886854e-02  -8.428457016747e-03
O        -0.0430570775      -1.3005282085       0.8301667854  -2.403393664114e-03  -1.257416454779e-02   2.515810610688e-02
O         1.2703454653       0.0965410153      -0.8389293335  -4.845754628389e-02  -5.264427796805e-02  -7.577909113115e-02
O        -1.2132375792      -0.1440026541      -1.0006697367  -4.222997047534e-02   7.941295640869e-02   4.265002241837e-02
H         0.6612132154      -0.6083951239      -2.1186095529   4.111824323234e-02   4.187138721505e-02   8.050579196126e-02
H        -1.8171535879       0.7260569573      -0.7303655142   3.443954468664e-02  -5.978770128743e-02  -2.861811600131e-02
7
Properties=species:S:1:pos:R:3:forces:R:3 energy=-6.998851307250e+02 dipole="-1.8676121159e-01 1.0724576746e-01 -1.1893543973e+00" quadrupole="-2.5666581746e+01 -3.5974061934e+00 -3.5664072178e-01 -3.5974061934e+00 -2.7709469173e+01 5.8212072732e-01 -3.5664072178e-01 5.8212072732e-01 -2.5539755577e+01" polarizability="3.7478105647e+01 -2.5649056391e+00 -6.8589382176e-01 -2.5649048591e+00 4.0724408357e+01 -1.1386894126e-01 -6.8589422994e-01 -1.1387042723e-01 3.5832329548e+01" dipole_derivatives="2.4388729764e+00 -2.5643345763e-01 -6.8797026872e-02 -7.4283231685e-02 2.2781673447e+00 -5.8824762717e-02 -1.8496711828e-02 -3.8489700724e-02 2.2354940432e+00 -5.8347878901e-01 6.4251769698e-02 -1.0199862832e-02 1.3876616570e-02 -9.9924033389e-01 -3.2890826584e-01 -2.7795442750e-02 -1.2259953394e-01 -6.8751417578e-01 -5.5385552655e-01 5.3676948576e-02 2.2785298579e-02 -5.3983796954e-02 -9.2017752636e-01 3.0878113319e-01 7.4133418076e-02 1.3107360767e-01 -6.7206620098e-01 -9.4341258819e-01 1.0614849820e-01 4.0381342777e-01 1.0032895096e-01 -4.2059603152e-01 6.6804453120e-03 3.8631505862e-01 2.0736690106e-03 -7.8034053353e-01 -9.9189740778e-01 1.2585223187e-01 -3.4173564404e-01 1.8184134509e-01 -4.7745770150e-01 1.0928374412e-01 -4.1244337011e-01 6.1909033803e-02 -7.6337683453e-01 3.0361477712e-01 -4.2497084391e-02 -1.3716197167e-02 -7.3587397489e-02 2.4680644953e-01 9.4935407065e-03 -2.5407288333e-02 -6.6386180414e-03 3.3359296940e-01 3.2989281213e-01 -5.0879455208e-02 7.8507405799e-03 -9.4045650755e-02 2.9234099656e-01 -4.6418669816e-02 2.3724466437e-02 -2.7167774097e-02 3.3405373597e-01" charge=0 multiplicity=1 method=b3lyp basis=def2-svpd config_type=h2so4 sample_index=5 temperature=500.0 units=atomic
S        -0.0271827250      -0.0025691127       0.1465036163   4.105450725822e-02  -8.426521582710e-02  -1.734936851999e-02
O        -0.0484619359       1.2795720961       0.7105458538   4.375887687136e-03   6.534845849432e-02   4.996327429046e-02
O         0.0769217857      -1.3316480273       0.7736539140  -1.839635614692e-02   2.488886301234e-02  -1.044270210552e-03
O         1.3195519560       0.0364625594      -0.8068804595  -1.042250940865e-02  -6.178831787462e-02  -4.524843872968e-02
O        -1.2917946875       0.0162574855      -0.8226194503  -1.145988056755e-02   1.309291090999e-02  -2.288238502160e-02
H         1.3550737374      -0.9199821983      -1.3218538261   8.605848808817e-04   6.522653474435e-02   3.680473467693e-02
H        -1.3849400215       0.9912617425      -1.0197834704  -6.136725742334e-03  -2.288006440508e-02  -1.409237672287e-04
7
Properties=species:S:1:pos:R:3:forces:R:3 energy=-6.998777642486e+02 dipole="-3.3649402625e-01 2.1670552253e-01 -1.7140272006e+00" quadrupole="-2.5512222975e+01 -3.1551365185e+00 -8.7908427684e-02 -3.1551365185e+00 -2.7817781642e+01 4.6523757670e-01 -8.7908427684e-02 4.6523757670e-01 -2.4310343776e+01" polarizability="3.6686108596e+01 -2.9031077435e+00 -2.9476035983e-02 -2.9031056825e+00 3.8948956553e+01 5.1216269069e-01 -2.9476906781e-02 5.1215911248e-01 4.0241760151e+01" dipole_derivatives="2.3458218163e+00 -2.9319206580e-01 -1.0843396271e-01 -1.0044145895e-01 2.2927692680e+00 -6.1957798796e-02 3.2355102586e-03 -3.3790812863e-02 2.4896545438e+00 -5.3645218336e-01 5.6289276583e-02 -1.0948483195e-02 4.6897653058e-04 -9.9738130842e-01 -2.2040491669e-01 -3.2350845050e-02 -2.1398157349e-01 -7.0615539682e-01 -5.2681499238e-01 6.1078097254e-02 2.0739580362e-02 -4.8308188494e-02 -9.4373962479e-01 2.3848051356e-01 8.2098929767e-02 2.0433515400e-01 -7.1310641931e-01 -8.9914358778e-01 1.1276672829e-01 4.5198303083e-01 1.4520881577e-01 -4.6543957821e-01 -2.0778282995e-02 4.5347140539e-01 -1.1593666572e-02 -8.9756652533e-01 -1.0274742105e+00 1.4287656612e-01 -3.4926984969e-01 1.7305850797e-01 -4.7279559479e-01 1.1740523230e-01 -4.7494546886e-01 7.2982369126e-02 -8.6004544332e-01 2.9313857184e-01 -4.0001403062e-02 -1.6668204215e-02 -7.2857981648e-02 2.9006134968e-01 9.3393435962e-03 -4.5626834115e-02 -2.7697655968e-03 3.5327624739e-01 3.5107107287e-01 -3.9856348433e-02 1.2682590376e-02 -9.7147499232e-02 2.9649790909e-01 -6.1964193223e-02 1.4181485338e-02 -1.5064004162e-02 3.3387752262e-01" charge=0 multiplicity=1 method=b3lyp basis=def2-svpd config_type=h2so4 sample_index=6 temperature=500.0 units=atomic
S        -0.0246776570       0.0112883825       0.1221213207   2.799451144489e-02  -6.162677688433e-02   9.711322956703e-04
O        -0.0613932803       1.2040970121       0.8664000214   2.436572232161e-03   6.687920870919e-02   1.761314356895e-02
O         0.1072708726      -1.2131435717       0.8920892397  -2.208290588790e-02  -1.255697430167e-02  -1.063118981869e-02
O         1.2545705674      -0.0280492351      -0.8808537455  -1.881833513206e-04  -3.905993045803e-02  -6.935801960274e-02
O        -1.2318955121       0.0051088545      -0.9384310283  -2.282334052116e-02   2.570924659947e-02  -1.973019155184e-02
H         1.1615335575      -0.8076070900      -1.6742351043   2.934642362710e-03   5.848467902810e-02   6.586472222786e-02
H        -1.4666439971       0.9571523025      -1.2350521526   1.153746294913e-02  -3.779212066979e-02   1.563287197550e-02
7
Properties=species:S:1:pos:R:3:forces:R:3 energy=-6.998735638880e+02 dipole="-8.3205375115e-02 -8.4071111875e-02 -1.0395182693e+00" quadrupole="-2.6337474581e+01 -3.4203425656e+00 8.4439435533e-01 -3.4203425656e+00 -2.7770417852e+01 -9.1676361404e-01 8.4439435533e-01 -9.1676361404e-01 -2.5445121032e+01" polarizability="3.8968189586e+01 -1.6380211638e+00 2.5805045054e+00 -1.6380207176e+00 4.3365717926e+01 -2.4502737596e-01 2.5805037769e+00 -2.4502361936e-01 4.1117167993e+01" dipole_derivatives="2.1889330785e+00 -2.0516004976e-01 1.0538148807e-01 -4.8588454662e-02 2.0662861231e+00 4.3928037002e-02 2.6045606621e-02 3.8733819156e-02 2.2829929001e+00 -5.1697195067e-01 -9.5756445749e-03 -5.2104815088e-02 1.9550602306e-02 -8.5393045566e-01 -3.1994534912e-01 -1.5135003109e-02 -1.3707607084e-01 -6.5898513750e-01 -5.2131591676e-01 8.0407585596e-02 -1.4162671262e-03 -3.1936273632e-02 -9.0000705795e-01 3.0959931981e-01 5.8702512350e-02 1.0783986389e-01 -6.6353472058e-01 -8.9631597698e-01 1.2161149665e-01 2.5992650603e-01 1.0743859385e-01 -4.0623870739e-01 -6.7622535693e-02 3.9442768737e-01 -7.6951936436e-02 -7.4356765600e-01 -8.6758230309e-01 1.0690210910e-01 -3.0313373308e-01 1.2976154428e-01 -4.1178799275e-01 5.3819912646e-02 -4.6165550868e-01 1.6100459070e-02 -8.5333799209e-01 3.1450908304e-01 -5.8476946812e-02 -9.9232518424e-03 -7.0536488677e-02 2.5380392259e-01 3.7816274223e-02 -2.2852637073e-02 3.7497278381e-02 3.0667918342e-01 2.9897843199e-01 -3.5695356531e-02 1.2803924886e-03 -1.0560917775e-01 2.5192873520e-01 -5.7569454777e-02 2.0440925694e-02 1.3831400269e-02 3.2975050805e-01" charge=0 multiplicity=1 method=b3lyp basis=def2-svpd config_type=h2so4 sample_index=7 temperature=500.0 units=atomic
S        -0.0225899149       0.0073680322       0.2049026346   5.583168514181e-03   6.256347391796e-02  -4.715939694383e-02
O         0.0524477337       1.3517697400       0.8474265270  -1.472036974491e-02  -4.551794951187e-02  -9.629663856220e-03
O         0.0721111361      -1.3083325226       0.8006533822  -1.522051480622e-02  -1.930192680393e-03   1.442014695732e-02
O         1.2084178343       0.0375037554      -0.9066723601  -4.279745168678e-03  -5.993280204749e-02   9.861058701463e-03
O        -1.2822697538      -0.0848067659      -0.9863592560   5.836912403245e-03   5.948854930677e-02  -1.192740446953e-02
H         1.2568912009      -0.9985563103      -0.9976559820   1.180833275547e-02   5.003475182136e-02  -9.153690381509e-03
H        -1.3450086528       0.8261670403      -1.6150792593   1.103265591141e-02  -6.448425536288e-02   5.367675725028e-02
7
Properties=species:S:1:pos:R:3:forces:R:3 energy=-6.998528312360e+02 dipole="-2.9413284754e-02 1.4736401998e-01 -1.1638992289e+00" quadrupole="-2.6398857946e+01 -3.4633218720e+00 1.7464264901e-01 -3.4633218720e+00 -2.7505610106e+01 -4.7812035736e-01 1.7464264901e-01 -4.7812035736e-01 -2.5079867283e+01" polarizability="3.6536107958e+01 -2.1468544004e+00 8.7119273612e-01 -2.1468572451e+00 4.2266057841e+01 -2.2248220730e+00 8.7119436574e-01 -2.2248204068e+00 3.6831598473e+01" dipole_derivatives="2.4027527730e+00 -2.9232032066e-01 8.0403937042e-02 1.8875078864e-02 2.1676092056e+00 7.9379845171e-02 -9.8415389904e-03 -5.1776191198e-02 2.3009137330e+00 -5.7832707953e-01 3.0433900432e-02 -3.9195416670e-02 2.8778951300e-03 -9.5765761367e-01 -3.9591128148e-01 -1.9925737943e-02 -1.2054432926e-01 -7.0133409333e-01 -5.8190288326e-01 8.2250700144e-02 -1.5778514834e-02 -3.1106441716e-02 -9.2919035547e-01 3.2613225817e-01 3.1234635220e-02 1.4217148155e-01 -6.9832056621e-01 -9.7206079408e-01 1.2714754643e-01 3.2962441638e-01 5.3347882098e-02 -4.0022590851e-01 -4.1198519496e-03 4.0396055064e-01 -3.1797280414e-02 -7.7678822094e-01 -9.0120155340e-01 1.5752493486e-01 -3.5669528989e-01 5.9203258522e-02 -3.7749546354e-01 -2.4168906977e-02 -3.8752554698e-01 4.3383391883e-02 -7.6953284787e-01 3.2333622337e-01 -5.4043852854e-02 -1.3339452877e-02 -6.0786110347e-02 2.4226539010e-01 1.2799736004e-02 -2.5917656863e-02 1.5391204416e-02 3.2563847519e-01 3.0753102080e-01 -5.0957914613e-02 1.5124924430e-02 -4.2512390134e-02 2.5476763883e-01 5.8507860494e-03 8.1193025545e-03 3.1103950704e-03 3.1947594625e-01" charge=0 multiplicity=1 method=b3lyp basis=def2-svpd config_type=h2so4 sample_index=8 temperature=500.0 units=atomic
S        -0.0178394764       0.0042746723       0.1766425576   8.437851175921e-03  -6.753036581039e-02  -5.115897306419e-02
O         0.0103422275       1.2838927529       0.7140608739  -4.992261561082e-03   8.225577007918e-02   6.414517685634e-02
O         0.0388280761      -1.3271759328       0.7464734136  -7.707664700664e-03   5.085489060594e-04   2.012736879424e-02
O         1.2495868190       0.0767890265      -0.8211660771   8.310075873002e-03  -6.622260935354e-02  -3.032783103142e-02
O        -1.2709643457      -0.0507230494      -0.8345569042   1.508622489108e-03   9.484785877127e-02  -5.638369336723e-02
H         1.3047541182      -0.9208144833      -1.1274822191   8.513874905378e-03   5.269368343609e-02   8.595196581297e-03
H        -1.1799091163       1.0584550035      -1.3785102437  -1.403043253158e-02  -9.635422566734e-02   4.512479797060e-02
7
Properties=species:S:1:pos:R:3:forces:R:3 energy=-6.998906291260e+02 dipole="7.7594387100e-02 4.0461194641e-02 -8.7924031910e-01" quadrupole="-2.3610224756e+01 -4.1863378800e+00 -7.7198076372e-01 -4.1863378800e+00 -2.7500279901e+01 5.5052331481e-01 -7.7198076372e-01 5.5052331481e-01 -2.7455088584e+01" polarizability="3.7342725725e+01 -1.7192559515e+00 -5.2618416905e-01 -1.7192507898e+00 3.8075311033e+01 -7.5395544043e-01 -5.2618352286e-01 -7.5395672731e-01 3.7961110031e+01" dipole_derivatives="2.3481800303e+00 -1.7035382504e-01 -1.7742584094e-02 -8.2031036307e-02 2.2840565930e+00 -1.1736310530e-02 9.8083218134e-03 -6.8088865854e-02 2.3717997850e+00 -5.5890307774e-01 4.4876293831e-02 -2.4520531211e-02 -2.0348554364e-02 -9.7032514954e-01 -2.8066540836e-01 -7.6564770256e-02 -1.7553892747e-01 -7.0549436721e-01 -5.4889495068e-01 9.4488685516e-03 2.1480610142e-02 3.4437309563e-02 -9.5175652093e-01 2.5382751374e-01 9.0708375572e-03 2.1968298072e-01 -7.0293427669e-01 -9.9018129326e-01 6.9326443206e-02 3.3138407343e-01 1.0767531436e-01 -4.3517971212e-01 -7.7622360760e-02 4.5943397788e-01 -3.7117324809e-02 -8.4297126048e-01 -9.5167937014e-01 9.6720097211e-02 -3.0730827093e-01 1.1754983361e-01 -4.4913451069e-01 1.0087851449e-01 -3.9898602779e-01 9.3532015170e-02 -7.4674619809e-01 3.5722356252e-01 -1.9383031655e-02 -1.8989142895e-02 -9.5031388101e-02 2.5373279563e-01 8.0484508410e-02 -5.8252503830e-03 5.6050909887e-03 3.3754106485e-01 3.4426900040e-01 -3.0657070549e-02 1.5617669082e-02 -6.2345623153e-02 2.6859294223e-01 -6.5135993082e-02 3.0584260255e-03 -3.8072150900e-02 2.8876846746e-01" charge=0 multiplicity=1 method=b3lyp basis=def2-svpd config_type=h2so4 sample_index=9 temperature=500.0 units=atomic
S         0.0218635353      -0.0172004667       0.1642317840  -1.361376234917e-02  -4.094703648022e-02  -6.559342079366e-02
O        -0.0261866288       1.2019876783       0.8452664924   3.705338991347e-03   7.415187022166e-02   3.242402811372e-02
O        -0.0287582419      -1.2422536533       0.9052593603   1.004042886609e-02  -2.740121039822e-02  -1.488429678599e-03
O         1.2196573874       0.0865192794      -0.9771876846  -8.096332008958e-03   2.511378690194e-02   2.919337991519e-02
O        -1.2049058849      -0.0238615772      -0.9687874992  -1.781722071076e-02   5.545772039548e-02   2.390102491828e-02
H         1.5265743055      -0.7626533087      -1.2387735614   9.550975376352e-03  -3.175965774859e-02  -7.984842979345e-03
H        -1.5822714867       0.9529450493      -0.8693651086   1.617966108759e-02  -5.485763150087e-02  -1.069996318670e-02
7
Properties=species:S:1:pos:R:3:forces:R:3 energy=-6.998961788994e+02 dipole="3.0630921513e-01 -9.4341457020e-02 -1.1874047744e+00" quadrupole="-2.4879878434e+01 -3.5634869875e+00 -9.7300278569e-01 -3.5634869875e+00 -2.8015519499e+01 -8.9309913636e-02 -9.7300278569e-01 -8.9309913636e-02 -2.6081484161e+01" polarizability="3.5707026332e+01 -1.5844998797e+00 -8.5805481672e-02 -1.5845000067e+00 4.0027187682e+01 -8.4554506195e-02 -8.5805048402e-02 -8.4554347841e-02 3.6025715816e+01" dipole_derivatives="2.3802177750e+00 -1.8580060767e-01 -4.0557198503e-02 -6.1918398343e-02 2.2889697502e+00 -3.1234243460e-02 -6.9659969235e-02 -2.2825569735e-02 2.3292591495e+00 -5.6131482331e-01 3.6512172408e-02 -3.6082382050e-02 -1.2955668618e-02 -9.4024352157e-01 -2.8060150466e-01 -5.6937195451e-02 -1.1720087738e-01 -6.7628738203e-01 -5.4672294172e-01 3.2094315800e-02 1.7194903596e-02 1.0692078082e-02 -9.8671912089e-01 3.0077003801e-01 2.7312201193e-02 1.5392953139e-01 -6.7532223805e-01 -1.0670456358e+00 9.4570828927e-02 3.8693566129e-01 1.0099550255e-01 -4.5369975436e-01 -5.3599324877e-02 5.0079492602e-01 -3.1842729275e-02 -8.7631088965e-01 -8.9367814801e-01 1.0247843305e-01 -3.2266579139e-01 1.2070594129e-01 -4.5364591475e-01 5.6433374906e-02 -4.0163017714e-01 4.5208093967e-02 -7.9247075364e-01 3.7424350137e-01 -2.3339708596e-02 -2.0661959463e-02 -8.2594871775e-02 2.7388384782e-01 4.7255479515e-02 -2.3844165492e-02 -6.7885102396e-04 3.5775185083e-01 3.1424338528e-01 -5.6425534635e-02 1.5856988705e-02 -7.4919858205e-02 2.7142498247e-01 -3.9029938353e-02 2.4020158248e-02 -2.6551943308e-02 3.3333793919e-01" charge=0 multiplicity=1 method=b3lyp basis=def2-svpd config_type=h2so4 sample_index=10 temperature=500.0 units=atomic
S         0.0115952034      -0.0305878854       0.1550931962  -1.831356214623e-02   4.274172487049e-02   4.953625461517e-03
O        -0.0269803549       1.3074554920       0.7851831581   5.623469625387e-03  -2.789484524755e-02  -2.877298321131e-03
O         0.0128596778      -1.2995058023       0.8056898572   2.048954458525e-03  -2.416370714451e-02   1.869713643618e-02
O         1.2096910091       0.0635956418      -0.8735768094   2.288506978897e-02   2.262618665475e-02  -8.351330768274e-03
O        -1.2380029495      -0.0253941897      -0.8821570613   1.462449616931e-03   5.268632254765e-02  -7.179796219023e-03
H         1.5247294723      -0.7573852340      -1.2396911343   1.494567797700e-03  -1.933233484648e-02  -3.300611371571e-03
H        -1.2191373141       0.9952980373      -1.0639978271  -1.547504610817e-02  -4.630115711240e-02  -1.828922071994e-03
7