4
Properties=species:S:1:pos:R:3:forces:R:3 energy=-7.664507051969e+01 dipole="3.0865374944e-03 3.8888425217e-01 -5.4054498720e-02" quadrupole="-1.1790710088e+00 4.7238992224e-02 2.3715504215e-01 4.7238992224e-02 -4.8727747735e+00 -6.7536982335e-02 2.3715504215e-01 -6.7536982335e-02 -2.0065854220e+00" polarizability="7.8516504673e+00 1.4860891164e-02 1.4266410874e-01 1.4859950776e-02 5.6645239422e+00 -4.6086778336e-02 1.4266431563e-01 -4.6086891095e-02 7.1781194721e+00" dipole_derivatives="-5.4197775589e-01 -1.3004841492e-03 -4.2106623298e-02 -1.3688705147e-02 -3.6611147308e-01 3.4333475783e-03 -4.4715924378e-02 3.7767685733e-03 -4.3443704352e-01 6.9154370564e-01 6.3329143117e-04 2.5366362182e-02 -8.8648615030e-03 4.7122886756e-01 -3.5800268017e-03 1.5239443716e-02 -7.3603875817e-05 3.7733192381e-01 4.4581418721e-01 -8.8853060833e-04 1.2471592071e-01 1.3645843383e-02 4.5367850097e-01 4.8475881667e-03 1.5451893594e-01 -3.1210682499e-03 5.3935935379e-01 4.0461990613e-01 1.5558045222e-03 -1.0797519383e-01 8.9077335240e-03 4.4120276834e-01 -4.6998655656e-03 -1.2504296612e-01 -5.8054969432e-04 5.1774568829e-01" charge=1 multiplicity=1 method=b3lyp basis=def2-svpd config_type=h3o+ sample_index=0 temperature=500.0 units=atomic
O        -0.0034954145      -0.0264930297       0.0050695897  -1.617988939623e-02   5.239743202535e-03  -1.416781330527e-02
H        -1.0338652172       0.1305736374      -0.0609416936   4.650746335079e-02  -3.183360340331e-03   1.169572586957e-02
H         0.5742217921       0.1329039489       0.7986509708  -2.020852166664e-02   2.398896512432e-04  -9.681288720229e-05
H         0.5151181891       0.1569860202      -0.8181673440  -1.012056681042e-02  -2.298564164448e-03   2.567760612645e-03
4
Properties=species:S:1:pos:R:3:forces:R:3 energy=-7.663549201039e+01 dipole="-1.6145175971e-02 2.1124860799e-01 1.1331884582e-01" quadrupole="-2.3470081087e+00 -6.4306153035e-02 3.9483374800e-02 -6.4306153035e-02 -4.9146146182e+00 8.1534175201e-02 3.9483374800e-02 8.1534175201e-02 -8.3288776534e-01" polarizability="6.5244140514e+00 -3.4354463147e-03 1.4653161690e-01 -3.4353063602e-03 5.4954592759e+00 6.9204461690e-02 1.4653100379e-01 6.9204959926e-02 7.8506004751e+00" dipole_derivatives="-4.0359792021e-01 -4.8131640980e-04 3.3176115470e-02 1.0301649547e-02 -4.0178577240e-01 2.3702456079e-03 2.0244943820e-02 -7.5986017731e-03 -5.9209839837e-01 5.4613086042e-01 1.3523840474e-03 -6.6319251604e-03 -4.8415651799e-03 4.3793432123e-01 -1.6142008211e-03 -1.6519791290e-02 -1.1455800780e-03 2.9704881995e-01 4.4267827814e-01 1.9449528407e-03 1.2489242114e-01 -2.1380537529e-03 4.8802956533e-01 5.8412129854e-03 9.2010248073e-02 3.7627582389e-03 6.6694191902e-01 4.1478939794e-01 -2.8172790272e-03 -1.5143717813e-01 -3.3232607720e-03 4.7582374197e-01 -6.5967806074e-03 -9.5735543333e-02 4.9812019243e-03 6.2810507044e-01" charge=1 multiplicity=1 method=b3lyp basis=def2-svpd config_type=h3o+ sample_index=1 temperature=500.0 units=atomic
O         0.0059675930      -0.0142646484      -0.0062381602   6.959187395399e-02  -6.130954603335e-03   5.456405936226e-02
H        -0.8996229080       0.0918350372       0.0269907931  -7.811732695949e-02   7.866210793565e-03  -2.899075594042e-03
H         0.4076619493       0.0820964168       0.9788002803  -4.222113556155e-03  -3.932937327475e-03  -6.190298527512e-02
H         0.3972509265       0.0524588669      -0.9067869449   1.274817171592e-02   2.195516295734e-03   1.023674794820e-02
4
Properties=species:S:1:pos:R:3:forces:R:3 energy=-7.662931842717e+01 dipole="5.7661301402e-02 1.3630779191e-01 4.0591109835e-02" quadrupole="-2.2685364860e+00 -1.6104110170e-02 1.9807479801e-01 -1.6104110170e-02 -4.9926411827e+00 6.0837985737e-03 1.9807479801e-01 6.0837985737e-03 -6.2391492736e-01" polarizability="6.7520020236e+00 1.8584428825e-02 1.7966788696e-01 1.8584515936e-02 5.6204957199e+00 8.9235837789e-03 1.7966797001e-01 8.9231067894e-03 8.4514509183e+00" dipole_derivatives="-4.3424947608e-01 -2.6642383856e-03 -1.6982562682e-02 8.9182610827e-03 -4.0960545647e-01 3.8426165425e-03 -1.7113133312e-02 -7.0974790875e-04 -5.8885686414e-01 5.4873293067e-01 2.8850825348e-03 1.4373746327e-02 -4.3063445143e-03 4.3767386561e-01 -2.1079468074e-03 -2.7695206704e-03 -4.5866774443e-04 2.7552530480e-01 4.6161604657e-01 4.1309871610e-04 1.5312300084e-01 -1.7367283870e-03 4.9458902390e-01 3.5731023615e-03 1.0900868826e-01 1.0584352793e-03 6.7547191071e-01 4.2389990622e-01 -6.3365678266e-04 -1.5051483192e-01 -2.8750158131e-03 4.7734272859e-01 -5.3061093512e-03 -8.9126998776e-02 1.1119573651e-04 6.3786101066e-01" charge=1 multiplicity=1 method=b3lyp basis=def2-svpd config_type=h3o+ sample_index=2 temperature=500.0 units=atomic
O         0.0016111190      -0.0091649546      -0.0004368305   1.154660843994e-01  -2.831635200041e-03   1.665678751719e-02
H        -0.8978864299       0.0529078621      -0.0249171429  -9.310360217806e-02   6.182255531764e-03   3.294366421544e-03
H         0.4597394216       0.0473122594       0.9880324759  -1.957298064568e-02  -2.095283563405e-03  -6.867426963584e-02
H         0.4125773814       0.0452343583      -0.9561825155  -2.790193153043e-03  -1.254349133471e-03   4.872338575676e-02
4
Properties=species:S:1:pos:R:3:forces:R:3 energy=-7.664612624505e+01 dipole="2.8995805946e-02 5.1712265322e-01 -5.9951942710e-02" quadrupole="-1.4390101493e+00 6.9784331841e-02 -1.7322368628e-01 6.9784331841e-02 -4.6986860809e+00 -4.4121859161e-02 -1.7322368628e-01 -4.4121859161e-02 -2.1387200393e+00" polarizability="7.2999789340e+00 3.7527530966e-02 -2.5018086422e-01 3.7526984001e-02 5.5440051946e+00 -7.9648653853e-02 -2.5018105005e-01 -7.9648764923e-02 6.8017210655e+00" dipole_derivatives="-5.0626783493e-01 -4.3905836283e-03 5.5156600543e-03 -1.2904148114e-02 -3.3143471558e-01 -8.8420446814e-03 9.1106671195e-04 7.7862041524e-03 -4.0231641449e-01 6.5802509247e-01 1.1501277430e-03 -9.7256475903e-03 -1.1796758746e-02 4.5493773596e-01 4.7020961309e-03 9.1253980338e-03 5.3090584398e-04 3.6900732097e-01 4.0284924797e-01 -1.4627163677e-03 1.1061561290e-01 1.1554062215e-02 4.3028487848e-01 6.0906474979e-03 1.2077670366e-01 -4.9726453197e-03 4.9476720207e-01 4.4539447826e-01 4.7036259326e-03 -1.0640630063e-01 1.3146965281e-02 4.4620995681e-01 -1.9517732421e-03 -1.3081258105e-01 -3.3461999594e-03 5.3854101678e-01" charge=1 multiplicity=1 method=b3lyp basis=def2-svpd config_type=h3o+ sample_index=3 temperature=500.0 units=atomic
O        -0.0044524007      -0.0355118082       0.0029164473  -1.315423291874e-02  -4.812596402440e-03  -5.961601961355e-02
H        -0.9847255169       0.1756579746       0.0110156060   1.844788719935e-02  -1.505797798103e-04  -1.396322468367e-03
H         0.5047919602       0.1870411175       0.7526610641   1.823561925300e-02   1.118295908380e-02   4.988005646937e-02
H         0.5505963861       0.2008990744      -0.8099628047  -2.353141278003e-02  -6.218368278713e-03   1.113293401029e-02
4
Properties=species:S:1:pos:R:3:forces:R:3 energy=-7.664192816801e+01 dipole="9.9372094986e-02 7.4694042227e-01 5.1128188147e-02" quadrupole="-1.6733386632e+00 1.2880723248e-01 9.4758891035e-02 1.2880723248e-01 -4.5435622344e+00 5.3554296821e-02 9.4758891035e-02 5.3554296821e-02 -1.8423217960e+00" polarizability="7.8982214783e+00 1.6940787745e-01 1.8366246242e-01 1.6940714382e-01 6.0901864933e+00 9.6425213777e-02 1.8366250144e-01 9.6425608202e-02 8.0413793569e+00" dipole_derivatives="-4.7312819805e-01 -1.3807558769e-02 1.5337379138e-03 6.5819169929e-03 -2.6021570524e-01 8.2952466109e-03 3.1157029725e-03 -6.7580078071e-03 -4.0911858921e-01 6.0598548353e-01 5.6289313173e-03 3.7883217840e-03 -2.6136021596e-02 4.1378124479e-01 -3.3817762306e-03 -7.6119407364e-03 -2.5974508402e-04 3.4268097170e-01 4.4478734248e-01 6.4278355134e-03 1.1108946004e-01 9.9016857149e-03 4.2929076183e-01 1.0212966811e-02 1.1141729084e-01 8.3627765731e-03 5.4609485590e-01 4.2235539640e-01 1.7509441144e-03 -1.1641175902e-01 9.6508094603e-03 4.1714241990e-01 -1.5127095391e-02 -1.0692056340e-01 -1.3464582684e-03 5.2034469986e-01" charge=1 multiplicity=1 method=b3lyp basis=def2-svpd config_type=h3o+ sample_index=4 temperature=500.0 units=atomic
O        -0.0068724046      -0.0524838609      -0.0027516765   4.484760228109e-02   3.737678277316e-02   2.334164625751e-02
H        -0.9595258891       0.2588019225       0.0009987862   1.474966263156e-02  -3.076645475441e-03  -2.629955427269e-04
H         0.5460401457       0.2936145309       0.8636593488  -3.672167313076e-02  -2.161820032406e-02  -4.588657265106e-02
H         0.5225557918       0.2805405062      -0.8209870314  -2.287577283587e-02  -1.268050083561e-02   2.281242213398e-02
4
Properties=species:S:1:pos:R:3:forces:R:3 energy=-7.663540432872e+01 dipole="4.4222110359e-02 3.6580204383e-01 -7.6017500631e-02" quadrupole="-1.6990462552e+00 8.7727861180e-03 -7.4206626532e-02 8.7727861180e-03 -4.9924857654e+00 -6.1314788313e-02 -7.4206626532e-02 -6.1314788313e-02 -1.0224352815e+00" polarizability="7.9528862506e+00 3.7810350649e-02 -1.7731862920e-01 3.7810152512e-02 5.9353475597e+00 -7.3426378032e-02 -1.7731907018e-01 -7.3426642500e-02 8.7473992014e+00" dipole_derivatives="-4.8343775508e-01 -3.1386827000e-03 -1.5326416280e-02 1.1265248536e-02 -3.7085245997e-01 -5.9748989912e-03 -1.2375757563e-02 5.8220076041e-03 -5.3376782442e-01 6.1631430176e-01 4.0271963775e-03 4.7446781790e-04 -1.2741597730e-02 4.4329409908e-01 2.1020445182e-03 1.1940494442e-02 7.1490253039e-04 3.1712643683e-01 4.2176702430e-01 -2.5480532941e-03 1.5145022213e-01 4.4428679251e-04 4.5829861691e-01 1.3641161002e-02 1.2175315058e-01 -2.4816338738e-03 5.9372664434e-01 4.4535580337e-01 1.6598366799e-03 -1.3659870489e-01 1.0320019199e-03 4.6926034699e-01 -9.7671014752e-03 -1.2131739548e-01 -4.0556661294e-03 6.2291459539e-01" charge=1 multiplicity=1 method=b3lyp basis=def2-svpd config_type=h3o+ sample_index=5 temperature=500.0 units=atomic
O        -0.0004480863      -0.0248441475       0.0040177772   2.858785705585e-02   1.441511292067e-02  -2.775646185202e-02
H        -0.9943707904       0.1302062399      -0.0115304772   2.220807825534e-02  -1.767465392323e-03   2.420087486995e-03
H         0.4923191733       0.1224998656       0.9161635709  -2.005022012224e-02  -3.648176182140e-03  -4.513974874397e-02
H         0.5091630724       0.1415885445      -0.9683981328  -3.074735867148e-02  -9.001073708307e-03   7.047228248818e-02
4
Properties=species:S:1:pos:R:3:forces:R:3 energy=-7.663293189899e+01 dipole="-1.0190919362e-01 1.7923511568e-01 1.9324732187e-01" quadrupole="-1.5819152670e+00 -5.6611699173e-02 -1.4874248258e-01 -5.6611699173e-02 -4.8419183505e+00 1.4507481768e-01 -1.4874248258e-01 1.4507481768e-01 -1.8973146430e+00" polarizability="6.8566856992e+00 -4.3251465865e-02 9.8147085102e-02 -4.3251366661e-02 5.3029156217e+00 9.1090138862e-02 9.8147181747e-02 9.1090284534e-02 6.4352985364e+00" dipole_derivatives="-4.6128528904e-01 7.4895863757e-03 7.1006949535e-02 -2.7687368529e-03 -4.0772009353e-01 2.9589468558e-04 7.9271612722e-02 -1.1460570670e-02 -4.7518840089e-01 6.6292791655e-01 -4.5052260172e-03 -3.0053816580e-02 -4.0109269376e-03 4.8104622960e-01 -1.1689538123e-03 -3.9765011447e-02 -1.3230955375e-03 3.8435778348e-01 4.0295770956e-01 3.4809192805e-03 9.0453065113e-02 4.5564028786e-03 4.6241051446e-01 2.7689359313e-03 1.1049866284e-01 3.8124291318e-03 5.6546229065e-01 3.9540058906e-01 -6.4660291039e-03 -1.3140658928e-01 2.2228089788e-03 4.6426359153e-01 -1.8969947591e-03 -1.5000567912e-01 8.9713094522e-03 5.2536845599e-01" charge=1 multiplicity=1 method=b3lyp basis=def2-svpd config_type=h3o+ sample_index=6 temperature=500.0 units=atomic
O         0.0047089725      -0.0119987008      -0.0132398381  -1.083509518647e-01  -5.555650360467e-03   1.578352414708e-01
H        -0.9996547214       0.0764003556       0.0896945073   2.605770217507e-02  -2.132007245516e-03  -1.932922988796e-02
H         0.4454397840       0.0884636635       0.8595989888   6.841945150196e-03  -9.554677968630e-04  -6.659831055923e-03
H         0.4794801268       0.0255640703      -0.7391676571   7.545171894819e-02   8.645755946750e-03  -1.318460201209e-01
4
Properties=species:S:1:pos:R:3:forces:R:3 energy=-7.663367566307e+01 dipole="-4.0199150998e-02 6.2195943056e-01 9.5302229404e-02" quadrupole="-1.6545363977e+00 -3.4125982493e-02 5.7180709539e-01 -3.4125982493e-02 -4.6087268758e+00 4.0571383886e-02 5.7180709539e-01 4.0571383886e-02 -1.9218172811e+00" polarizability="7.4918489908e+00 -7.5294141977e-02 6.6587654292e-01 -7.5293492202e-02 5.6765020320e+00 1.4895700136e-01 6.6587691999e-01 1.4895613323e-01 7.0530790539e+00" dipole_derivatives="-4.4688203946e-01 8.1841724427e-03 -3.9964706457e-02 -5.2935866861e-03 -3.0076628081e-01 3.1014146593e-02 -4.2687647398e-02 -1.4928934024e-02 -4.4262536936e-01 6.2938056562e-01 -5.9263259628e-03 3.8321387592e-02 -1.2069071788e-02 4.4051914626e-01 -1.7314433056e-02 -6.4105607752e-03 -2.7401337178e-03 3.7404977666e-01 4.6859705860e-01 5.3172274446e-03 1.0605495472e-01 1.5365911824e-02 4.5311890310e-01 3.7528164164e-03 1.4070122686e-01 6.4178523936e-03 5.9088047390e-01 3.4890598049e-01 -7.5721622866e-03 -1.0441213571e-01 1.9988180246e-03 4.0713011555e-01 -1.7451665789e-02 -9.1602439607e-02 1.1252110716e-02 4.7769508810e-01" charge=1 multiplicity=1 method=b3lyp basis=def2-svpd config_type=h3o+ sample_index=7 temperature=500.0 units=atomic
O         0.0023377063      -0.0429837827      -0.0025146080  -6.078411078127e-02  -9.819984641558e-03   1.270555965583e-01
H        -0.9898562914       0.2338088297      -0.0748339013   3.348729730978e-02  -1.000783258825e-02   1.488307375187e-02
H         0.5527088275       0.2301645490       0.8667204333  -3.383207924709e-02  -1.193623139093e-02  -4.206598873438e-02
H         0.4000463681       0.2182104452      -0.7519778775   6.112261216578e-02   3.176318527128e-02  -9.987316726840e-02
4
Properties=species:S:1:pos:R:3:forces:R:3 energy=-7.664025054051e+01 dipole="1.2378411144e-01 2.2506083626e-01 9.9301106638e-02" quadrupole="-1.0416853608e+00 1.5232996534e-01 1.3662649808e-01 1.5232996534e-01 -4.9203915567e+00 6.8737906334e-02 1.3662649808e-01 6.8737906334e-02 -2.1618683913e+00" polarizability="7.5497869904e+00 1.0375973566e-01 2.8499136622e-01 1.0375961342e-01 5.5347550366e+00 7.2636920808e-02 2.8499147908e-01 7.2636961765e-02 6.9606180607e+00" dipole_derivatives="-6.1008408148e-01 -1.1297436843e-02 9.9057179148e-03 -1.0398948188e-02 -4.0066433444e-01 4.3472459018e-03 2.2202053432e-02 -3.9647003644e-03 -3.8821098830e-01 7.0758060888e-01 8.3773319162e-03 1.8165018897e-03 -3.5299676265e-03 4.8350848678e-01 -2.9819699048e-03 -2.0114076121e-02 -2.0583727414e-03 3.6112968489e-01 4.6836228537e-01 4.9669837752e-03 1.1553871339e-01 8.1972446791e-03 4.6338489962e-01 2.0774410354e-03 1.4192563488e-01 5.5190785393e-03 5.3602198480e-01 4.3414144973e-01 -2.0467132899e-03 -1.2726149023e-01 5.7327627407e-03 4.5377127769e-01 -3.4422095259e-03 -1.4401408046e-01 5.0444326760e-04 4.9105858492e-01" charge=1 multiplicity=1 method=b3lyp basis=def2-svpd config_type=h3o+ sample_index=8 temperature=500.0 units=atomic
O        -0.0118797937      -0.0152208466      -0.0059058379   3.206383235833e-02  -7.725559001112e-04   6.852792475856e-02
H        -0.9995203387       0.0479460208       0.0124508527   1.032644839445e-02   3.159522356498e-03  -3.049917257689e-03
H         0.6103059369       0.1108398286       0.8211753299  -4.332013359349e-02  -5.796976001007e-03  -2.241065236063e-02
H         0.5777553488       0.0827800312      -0.7398962494   9.306883696855e-04   3.407971440261e-03  -4.306325624440e-02
4
Properties=species:S:1:pos:R:3:forces:R:3 energy=-7.664476092695e+01 dipole="-6.9259441577e-02 7.2744576888e-01 -2.5065003620e-02" quadrupole="-1.9345766408e+00 -9.7936400997e-02 -2.9133621730e-01 -9.7936400997e-02 -4.5299709467e+00 5.7176499359e-03 -2.9133621730e-01 5.7176499359e-03 -1.7020306036e+00" polarizability="7.6595674704e+00 -1.1995083757e-01 -3.1012657832e-01 -1.1995033662e-01 5.9399406568e+00 -4.2645161083e-02 -3.1012654641e-01 -4.2644159657e-02 7.6325594681e+00" dipole_derivatives="-4.0701332306e-01 9.7508618432e-03 2.5352111297e-02 7.2750306522e-04 -2.6486852679e-01 -1.6639409891e-02 2.8477044452e-02 3.5413230801e-03 -4.6758133662e-01 5.9356744767e-01 -7.7426982671e-03 -1.9817852584e-02 -1.2976200611e-02 4.2311941191e-01 9.9020557472e-03 -9.4298451229e-04 1.8990445630e-03 3.6138819151e-01 3.8122307128e-01 -3.3158428584e-03 1.0032566447e-01 1.4807121526e-03 4.1089765898e-01 2.2070653945e-02 8.9231237448e-02 -2.7249402938e-03 5.2929380810e-01 4.3222345153e-01 1.3096149402e-03 -1.0585992902e-01 1.0768834348e-02 4.3085074173e-01 -1.5332516122e-02 -1.1676487110e-01 -2.7150146410e-03 5.7689850479e-01" charge=1 multiplicity=1 method=b3lyp basis=def2-svpd config_type=h3o+ sample_index=9 temperature=500.0 units=atomic
O         0.0055370178      -0.0510394052      -0.0003720023  -3.289294283635e-02   2.699746501691e-02  -2.952529362724e-02
H        -0.9794044499       0.2851977269       0.0460996542   3.639879183605e-02  -1.647542939819e-02  -9.946039777274e-03
H         0.4075435640       0.2632991043       0.8327720481   1.394312631541e-02   3.400994775510e-04   1.895376750172e-03
H         0.4839843955       0.2615355677      -0.8729677561  -1.745157242930e-02  -1.086284496569e-02   3.757544891942e-02
4
Properties=species:S:1:pos:R:3:forces:R:3 energy=-7.662548222542e+01 dipole="-8.1711436070e-02 9.0169392899e-01 9.3663350444e-02" quadrupole="-2.0705598837e+00 -1.2815273282e-01 6.7919428856e-01 -1.2815273282e-01 -4.2172726232e+00 4.1732682573e-02 6.7919428856e-01 4.1732682573e-02 -1.9478753446e+00" polarizability="7.7230303433e+00 -2.0310267081e-01 8.1194711189e-01 -2.0310139951e-01 6.1166571156e+00 2.2185611877e-01 8.1194731535e-01 2.2185549835e-01 7.4466834035e+00" dipole_derivatives="-3.7902051305e-01 1.5415008154e-02 -4.8967426803e-02 2.3374233042e-03 -2.0241282040e-01 4.5462699662e-02 -5.7366240454e-02 -1.8831295472e-02 -4.2682744876e-01 5.7393272301e-01 -1.4216667403e-02 4.1003875490e-02 -1.4350513049e-02 4.0749090981e-01 -2.6382554044e-02 -2.2013820215e-03 -5.6292161017e-03 3.7556286049e-01 4.6220910928e-01 8.3034738019e-03 9.0829600166e-02 1.9142371600e-02 4.2478920283e-01 1.0992875028e-02 1.2155103279e-01 1.2911499274e-02 5.8673962620e-01 3.4287783324e-01 -9.5011653798e-03 -8.2866089311e-02 -7.1293510502e-03 3.7013367851e-01 -3.0073213093e-02 -6.1984219195e-02 1.1547112575e-02 4.6452380192e-01" charge=1 multiplicity=1 method=b3lyp basis=def2-svpd config_type=h3o+ sample_index=10 temperature=500.0 units=atomic
O         0.0069506708      -0.0644559098      -0.0020659914  -6.171747631315e-02   1.729132004517e-02   1.128110742237e-01
H        -0.9581059503       0.3600493369      -0.0989183017   3.289893414101e-02  -2.724653627590e-02   2.313910650535e-02
H         0.5190310969       0.3363685888       0.8783695301  -3.149836600376e-02  -2.403993682561e-02  -5.122840620759e-02
H         0.3287626639       0.3265441374      -0.7466624464   6.031462756068e-02   3.399338447759e-02  -8.472261599739e-02
4
Properties=species:S:1:pos:R:3:forces:R:3 energy=-7.663804280242e+01 dipole="-7.5178212694e-02 9.4538998179e-01 4.4555606333e-02" quadrupole="-1.7353787599e+00 -7.3691797537e-02 -1.5602452969e-01 -7.3691797537e-02 -4.1850628499e+00 7.7130410086e-02 -1.5602452969e-01 7.7130410086e-02 -2.2829905887e+00" polarizability="8.3142687189e+00 -1.8379065853e-01 -9.9615038620e-02 -1.8379161205e-01 6.3599191846e+00 8.1868795421e-02 -9.9614966379e-02 8.1869179697e-02 7.5092627351e+00" dipole_derivatives="-4.1086990597e-01 1.2320885767e-02 2.1685741754e-02 -2.2852940020e-02 -1.8870900828e-01 -1.1198182665e-03 2.3941803778e-02 -5.3276523967e-03 -3.8216343086e-01 6.0857812226e-01 -1.6956968776e-02 -1.2537855195e-02 -1.8510133542e-02 4.1309108164e-01 5.2721909062e-03 -8.9922277897e-03 1.6155769139e-03 3.8672123206e-01 3.9253831922e-01 2.8374474157e-03 7.6239366569e-02 1.5523390398e-02 3.8821464000e-01 1.2868081543e-02 9.3262848065e-02 3.7144558389e-03 4.9355822594e-01 4.0975172667e-01 1.8015274766e-03 -8.5386161572e-02 2.5839295904e-02 3.8740320191e-01 -1.7020767870e-02 -1.0821382043e-01 -2.3936676113e-06 5.0188391255e-01" charge=1 multiplicity=1 method=b3lyp basis=def2-svpd config_type=h3o+ sample_index=11 temperature=500.0 units=atomic
O         0.0031140620      -0.0682236040      -0.0038072576  -3.850825270497e-02   6.068632579419e-02   1.482367943267e-02
H        -1.0069068566       0.3694590635       0.0438468269   5.805618294638e-02  -3.089316473665e-02  -9.169043140421e-03
H         0.4582119475       0.3656923586       0.7918410535  -7.015140053520e-03  -1.790188397608e-02  -9.775924789235e-03
H         0.4992724855       0.3476066819      -0.7752639402  -1.253486807294e-02  -1.189247198083e-02   4.120168595878e-03
4
Properties=species:S:1:pos:R:3:forces:R:3 energy=-7.661758188042e+01 dipole="1.6260989176e-02 4.7836412222e-01 1.8073069697e-01" quadrupole="-2.2146061027e+00 -1.3031239607e-02 -7.4528559465e-01 -1.3031239607e-02 -4.5588171878e+00 2.4957174450e-01 -7.4528559465e-01 2.4957174450e-01 -1.8966246482e+00" polarizability="5.9088704424e+00 -6.2395764093e-03 -3.2252590597e-01 -6.2394652546e-03 5.1213069081e+00 1.6014761975e-01 -3.2252563890e-01 1.6014733012e-01 6.1688254004e+00" dipole_derivatives="-4.2980256197e-01 7.7048210520e-03 1.4399428248e-01 9.8571752115e-03 -3.4876846834e-01 -1.9610973747e-02 1.4039419576e-01 -2.0870286008e-02 -4.7278081808e-01 5.7559336955e-01 3.8772941120e-03 -7.4532747547e-02 -3.9529197512e-03 4.4944366933e-01 2.2179787021e-02 -4.3748988569e-02 4.8937425163e-03 3.8619780447e-01 3.6997544759e-01 -4.2897467968e-03 6.5516445110e-02 -1.5579916717e-02 4.2927279959e-01 4.8954134416e-03 4.8326597144e-02 7.8982919202e-03 5.1021917538e-01 4.8423396061e-01 -7.2929063834e-03 -1.3497861267e-01 9.6761231454e-03 4.7005113837e-01 -7.4652327084e-03 -1.4497249328e-01 8.0774615350e-03 5.7636385310e-01" charge=1 multiplicity=1 method=b3lyp basis=def2-svpd config_type=h3o+ sample_index=12 temperature=500.0 units=atomic
O        -0.0003370790      -0.0327280348      -0.0175879000   1.724717936158e-02  -5.221357757139e-02   2.752862953772e-02
H        -0.8476197260       0.1722162715       0.2184145929  -1.101702305187e-01   1.964764045984e-02  -2.608246917763e-02
H         0.3179071847       0.2153744912       0.8070316049   6.541280234562e-02   1.202396050165e-02   6.184877285935e-02
H         0.5350622290       0.1318268994      -0.7463134622   2.750780415575e-02   2.053974902711e-02  -6.329403562504e-02
4
Properties=species:S:1:pos:R:3:forces:R:3 energy=-7.664602748578e+01 dipole="9.8704563505e-02 4.8484841900e-01 -2.7054174917e-02" quadrupole="-1.5958020684e+00 1.2436599083e-01 -1.3404760429e-01 1.2436599083e-01 -4.6722669010e+00 -1.4267339304e-02 -1.3404760429e-01 -1.4267339304e-02 -2.1467887314e+00" polarizability="6.7798290596e+00 1.0240092518e-01 -1.5391815799e-01 1.0240053852e-01 5.3866188444e+00 -3.7055483642e-02 -1.5391842380e-01 -3.7055481572e-02 6.5792984706e+00" dipole_derivatives="-5.0752883147e-01 -1.3372588473e-02 1.0418789978e-02 -4.9051487481e-03 -3.4008708606e-01 -5.5252797079e-03 6.7935126818e-03 3.5913443949e-03 -3.8392295599e-01 6.3576227856e-01 7.1961610777e-03 -9.7637812113e-03 -1.2288694918e-02 4.5118776807e-01 3.6534290086e-03 3.4589201340e-03 4.0224622329e-04 3.5103198918e-01 4.2038552509e-01 1.4167761336e-03 1.1193451300e-01 7.5232625857e-03 4.3884362038e-01 2.9381889364e-03 1.1446952127e-01 -7.8552112867e-04 5.0204290982e-01 4.5138120999e-01 4.7593244277e-03 -1.1259092461e-01 9.6703946152e-03 4.5005482521e-01 -1.0658497328e-03 -1.2472252306e-01 -3.2078690122e-03 5.3084826597e-01" charge=1 multiplicity=1 method=b3lyp basis=def2-svpd config_type=h3o+ sample_index=13 temperature=500.0 units=atomic
O        -0.0082529492      -0.0332091701       0.0008891141   4.496228034592e-02  -1.584142210332e-02  -3.382359749295e-02
H        -0.9322629461       0.1530516585       0.0160282875  -3.810387138488e-02   1.164651199113e-02  -1.975879780117e-03
H         0.5136666508       0.1848880697       0.7574250283   1.005102497324e-02   6.832097276847e-03   3.996357883643e-02
H         0.5495765878       0.1891139006      -0.7875642015  -1.691147129465e-02  -2.634259084024e-03  -4.163897813798e-03
4
Properties=species:S:1:pos:R:3:forces:R:3 energy=-7.663172564423e+01 dipole="1.5598176960e-01 2.6843583600e-01 8.5908865188e-03" quadrupole="-1.9739016929e+00 9.8500277641e-02 3.2554935905e-01 9.8500277641e-02 -4.7902102402e+00 -2.6248040555e-02 3.2554935905e-01 -2.6248040555e-02 -1.5951187220e+00" polarizability="6.2068287842e+00 9.1247258007e-02 2.2763079633e-01 9.1247404672e-02 5.2626490149e+00 -6.8338813827e-04 2.2763080321e-01 -6.8368456185e-04 6.8471032579e+00" dipole_derivatives="-4.7591962995e-01 -1.2082198815e-02 -4.8311401035e-02 9.1699234921e-03 -3.9297305906e-01 8.5053626982e-03 -3.9056540772e-02 -5.4129267941e-04 -4.3861950509e-01 5.8199480387e-01 1.0484747668e-02 3.2048577519e-02 -6.1613061185e-03 4.5191172478e-01 -5.2701966572e-03 3.5770501513e-03 1.3325563328e-04 3.0485899897e-01 4.8069886905e-01 1.4357601602e-03 1.4353953968e-01 3.1035170537e-04 4.8434800490e-01 3.5170561533e-03 1.2905545323e-01 3.7292900126e-03 5.9370510418e-01 4.1322519550e-01 1.6132837444e-04 -1.2727626636e-01 -3.3182936965e-03 4.5671337964e-01 -6.7519058154e-03 -9.3575134889e-02 -3.3207946250e-03 5.4005565293e-01" charge=1 multiplicity=1 method=b3lyp basis=def2-svpd config_type=h3o+ sample_index=14 temperature=500.0 units=atomic
O        -0.0084496836      -0.0180447127       0.0025232142   1.762681728342e-01  -1.831204726503e-02   3.508438590418e-02
H        -0.8630927833       0.0722886341      -0.0631478244  -1.650466930526e-01   1.851537443856e-02   1.747303269003e-03
H         0.5417266853       0.1010554381       0.8519931231  -2.420013878515e-02  -1.996446105567e-03  -2.235467645043e-02
H         0.4554687079       0.1130386138      -0.8288905398   1.297735816224e-02   1.792527682751e-03  -1.447644859319e-02
4
Properties=species:S:1:pos:R:3:forces:R:3 energy=-7.663919118856e+01 dipole="-6.1690696172e-02 1.5640097861e-01 1.5850883369e-01" quadrupole="-2.0488234839e+00 -6.4150644128e-02 2.3109175389e-02 -6.4150644128e-02 -4.8518010205e+00 1.0712776519e-01 2.3109175389e-02 1.0712776519e-01 -1.4308705371e+00" polarizability="6.4590752445e+00 -2.6674071227e-02 1.8039027560e-01 -2.6674041843e-02 5.2972780008e+00 7.2340173073e-02 1.8039022519e-01 7.2340385746e-02 6.8141212051e+00" dipole_derivatives="-4.1260285901e-01 3.3615917822e-03 4.6912163223e-02 3.1198359521e-03 -4.0785108089e-01 9.5315319122e-04 3.8289710296e-02 -9.3191949518e-03 -5.2834727572e-01 5.9485587981e-01 -2.3049148569e-03 -1.2214837401e-02 -3.9136203689e-03 4.5760147778e-01 -2.1540443769e-03 -2.6582187032e-02 -1.5209683048e-03 3.3903431989e-01 4.2711717518e-01 3.0028429139e-03 1.0652218376e-01 1.6564611080e-03 4.8089119710e-01 3.3028246335e-03 1.0301976012e-01 3.4897516153e-03 6.2272994849e-01 3.9063057800e-01 -4.0605672843e-03 -1.4122065087e-01 -8.6364356472e-04 4.6935905862e-01 -2.1017488160e-03 -1.1472739774e-01 7.3504951316e-03 5.6658071626e-01" charge=1 multiplicity=1 method=b3lyp basis=def2-svpd config_type=h3o+ sample_index=15 temperature=500.0 units=atomic
O         0.0061911768      -0.0105020305      -0.0094533349  -2.187918269004e-02  -5.699799799340e-03   1.247153626045e-01
H        -0.9370641729       0.0725459332       0.0449933906  -3.201283585140e-02   2.195466159435e-03  -7.853588796763e-03
H         0.4237478926       0.0695206657       0.9144469027   2.428988842460e-03  -2.089320075549e-03  -3.402870603237e-02
H         0.4150578117       0.0246082470      -0.8094090089   5.146377900567e-02   5.591298666487e-03  -8.283153288991e-02
4
Properties=species:S:1:pos:R:3:forces:R:3 energy=-7.662290635887e+01 dipole="1.4714058251e-01 9.7847484428e-01 2.3294384003e-01" quadrupole="-2.1308595765e+00 2.3242279196e-01 7.9001884238e-02 2.3242279196e-01 -3.9725485560e+00 3.3370839080e-01 7.9001884238e-02 3.3370839080e-01 -2.4207366740e+00" polarizability="6.9230176818e+00 3.3341834376e-01 4.8832545812e-01 3.3341705083e-01 6.0247520968e+00 5.5389407230e-01 4.8832547466e-01 5.5389376344e-01 7.1431920059e+00" dipole_derivatives="-4.0178758135e-01 -2.0481409931e-02 2.5690614408e-02 4.3603989867e-03 -1.6551767979e-01 1.8220251347e-02 3.0432931067e-02 -3.4660175011e-02 -3.2860304377e-01 5.4656986971e-01 2.3408187167e-03 -6.0115831101e-03 -2.6240995293e-02 3.7588600706e-01 -3.3910392180e-03 -3.4260702192e-02 -1.7428714967e-04 3.5381953528e-01 4.4676052392e-01 2.0167066969e-02 7.7107809693e-02 6.7992480330e-03 4.1942819803e-01 3.4251314851e-04 8.2232366493e-02 2.9250586840e-02 5.2139163898e-01 4.0845716841e-01 -2.0262930387e-03 -9.6788177302e-02 1.5080653406e-02 3.7020212387e-01 -1.5172567013e-02 -7.8404584132e-02 5.5810808809e-03 4.5339306277e-01" charge=1 multiplicity=1 method=b3lyp basis=def2-svpd config_type=h3o+ sample_index=16 temperature=500.0 units=atomic
O        -0.0111420485      -0.0707543847      -0.0163857742   5.208187157724e-02  -3.068519932987e-04   1.211811727316e-01
H        -0.8440060869       0.3437422681       0.0770460832  -5.611417218590e-02   1.736330516153e-02  -7.034102604099e-03
H         0.5187667833       0.4285143993       0.8274371021  -3.093748776581e-02  -4.492449980564e-02  -3.556818549546e-02
H         0.5020716989       0.3506667631      -0.6444290575   3.497340312572e-02   2.786602457568e-02  -7.857341380856e-02
4