2
Properties=species:S:1:pos:R:3:forces:R:3 energy=-1.003650100456e+02 dipole="-6.1458749941e-10 -3.0729483552e-10 -8.0281396402e-01" quadrupole="-4.5103947979e+00 4.9741522357e-16 1.6755087684e-09 4.9741522357e-16 -4.5103947979e+00 8.3775218900e-10 1.6755087684e-09 8.3775218900e-10 -2.4016159467e+00" polarizability="5.3987023269e+00 1.1321148730e-14 1.9794536600e-09 1.1195469402e-14 5.3987023269e+00 9.8975115332e-10 -4.6315922396e-08 -2.3158604978e-08 7.9848135496e+00" dipole_derivatives="-4.0653585069e-01 -1.0766444842e-11 3.9039641465e-11 -2.3835174406e-12 -4.0653585051e-01 7.9295108140e-12 -2.5867409603e-07 1.5353177063e-07 -3.5081291127e-01 4.0653433243e-01 4.5050008490e-15 -4.2454084742e-11 -9.4543983358e-14 4.0653433224e-01 -2.1483361921e-11 2.5867312459e-07 -1.5354434391e-07 3.5081312055e-01" charge=0 multiplicity=1 method=b3lyp basis=def2-svpd config_type=hf sample_index=0 temperature=500.0 units=atomic
F         0.0000000000       0.0000000000       0.0526427419  -6.891562614383e-11  -3.442890205376e-11  -8.996572735674e-02
H        -0.0000000008      -0.0000000004      -0.9923627627   6.887545406809e-11   3.443746074570e-11   8.996865954061e-02
2
Properties=species:S:1:pos:R:3:forces:R:3 energy=-1.003766175910e+02 dipole="-7.8033636966e-11 -7.8042030156e-11 -7.3225057082e-01" quadrupole="-4.4243546893e+00 -6.2837208871e-15 1.9326658996e-10 -6.2837208871e-15 -4.4243546893e+00 1.9326368886e-10 1.9326658996e-10 1.9326368886e-10 -2.6763198621e+00" polarizability="5.1436382400e+00 1.4042446216e-14 1.6733040376e-10 1.3284966918e-14 5.1436382400e+00 1.6731579681e-10 -2.0288672962e-09 -2.0287410956e-09 6.7136753852e+00" dipole_derivatives="-4.1298032122e-01 -3.7347693735e-12 1.0498619173e-11 -4.0973078887e-12 -4.1298032114e-01 7.9618400591e-12 -2.7479823972e-08 -4.0857789374e-08 -3.4800182818e-01 4.1298079379e-01 -8.4224358101e-14 -6.9571811972e-12 -3.3502387789e-14 4.1298079371e-01 -7.0060074230e-12 2.7466445784e-08 4.0847797367e-08 3.4800159903e-01" charge=0 multiplicity=1 method=b3lyp basis=def2-svpd config_type=hf sample_index=1 temperature=500.0 units=atomic
F         0.0000000000       0.0000000000       0.0472662000  -1.584306421512e-12  -1.645406528382e-12  -1.488280302461e-02
H        -0.0000000001      -0.0000000001      -0.8910101411   1.585771395487e-12   1.586698281785e-12   1.488379941951e-02
2
Properties=species:S:1:pos:R:3:forces:R:3 energy=-1.003768117952e+02 dipole="-8.4506715247e-16 1.0658512157e-15 -7.2418612611e-01" quadrupole="-4.4138936453e+00 -1.6578144579e-16 -7.6679542857e-16 -1.6578144579e-16 -4.4138936453e+00 -2.6371174460e-15 -7.6679542857e-16 -2.6371174460e-15 -2.7051877092e+00" polarizability="5.1146132201e+00 6.2347161485e-15 3.8867112840e-15 6.2125206858e-15 5.1146132201e+00 4.6642621345e-15 -1.5757809698e-14 -6.8895294613e-14 6.5816978651e+00" dipole_derivatives="-4.1384582997e-01 1.2049906984e-11 1.7853419678e-11 -1.6703724301e-11 -4.1384582975e-01 1.4425502072e-11 5.6388643754e-08 1.4847179042e-07 -3.4731303630e-01 4.1384654116e-01 1.7263196115e-14 1.2623556350e-13 1.5233890012e-14 4.1384654096e-01 -5.5228422548e-15 -5.6377263968e-08 -1.4847179042e-07 3.4731276321e-01" charge=0 multiplicity=1 method=b3lyp basis=def2-svpd config_type=hf sample_index=2 temperature=500.0 units=atomic
F         0.0000000000       0.0000000000       0.0466478565   7.317007772599e-14   1.841482393063e-14  -1.656548576908e-03
H        -0.0000000000      -0.0000000000      -0.8793538129  -1.359464714459e-15   1.017548447255e-15   1.657420610407e-03
2
Properties=species:S:1:pos:R:3:forces:R:3 energy=-1.003723001400e+02 dipole="3.1651412453e-10 1.5827120106e-10 -6.8410380366e-01" quadrupole="-4.3598354707e+00 2.7333256058e-15 -7.2905700261e-10 2.7333256058e-15 -4.3598354707e+00 -3.6453507714e-10 -7.2905700261e-10 -3.6453507714e-10 -2.8403783617e+00" polarizability="4.9703067173e+00 -2.6612410324e-15 -4.5901665033e-10 -3.3583048021e-15 4.9703067173e+00 -2.2948573342e-10 3.8886783097e-09 1.9442236285e-09 5.9626384372e+00" dipole_derivatives="-4.1873153594e-01 -4.3577600194e-12 -3.7116048870e-11 -6.0452161245e-12 -4.1873153564e-01 -1.4826959326e-11 2.9232868903e-07 1.4606565957e-08 -3.4249854555e-01 4.1873306627e-01 3.5154374366e-14 3.5585480665e-11 7.6320329827e-14 4.1873306600e-01 1.7553944630e-11 -2.9230995402e-07 -1.4611978294e-08 3.4249831030e-01" charge=0 multiplicity=1 method=b3lyp basis=def2-svpd config_type=hf sample_index=3 temperature=500.0 units=atomic
F        -0.0000000000      -0.0000000000       0.0435517432  -3.972391058599e-11  -1.986123730015e-11   8.587118188703e-02
H         0.0000000004       0.0000000002      -0.8209893074   3.973032401282e-11   1.986612681733e-11  -8.587160469009e-02
2
Properties=species:S:1:pos:R:3:forces:R:3 energy=-1.003766688193e+02 dipole="7.8391870249e-11 1.1060845459e-15 -7.1571939985e-01" quadrupole="-4.4027646120e+00 -2.3867974298e-15 -1.8948128357e-10 -2.3867974298e-15 -4.4027646120e+00 -3.9197893355e-15 -1.8948128357e-10 -3.9197893355e-15 -2.7349078558e+00" polarizability="5.0841464546e+00 7.8694798643e-15 -1.4907347308e-10 7.8780105930e-15 5.0841464546e+00 8.9519026244e-15 1.5789901857e-09 -7.6739479663e-14 6.4458874510e+00" dipole_derivatives="-4.1479225861e-01 5.6973820321e-13 -7.8932820028e-12 -1.6515864319e-11 -4.1479225822e-01 -2.9731013144e-11 -3.6399383507e-08 -3.3818225997e-09 -3.4649632715e-01 4.1479320734e-01 1.6898294726e-13 7.6590943338e-12 -1.1465230792e-13 4.1479320696e-01 2.0732062591e-13 3.6415592763e-08 3.3864577809e-09 3.4649599141e-01" charge=0 multiplicity=1 method=b3lyp basis=def2-svpd config_type=hf sample_index=4 temperature=500.0 units=atomic
F        -0.0000000000      -0.0000000000       0.0459972609  -1.494198705305e-12   2.509415715133e-14   1.361992039842e-02
H         0.0000000001       0.0000000000      -0.8670895038   1.490750075036e-12  -4.784310272016e-16  -1.361934511138e-02
2
Properties=species:S:1:pos:R:3:forces:R:3 energy=-1.003684295180e+02 dipole="-4.6225754689e-10 -3.0817036547e-10 -7.8868752711e-01" quadrupole="-4.4939311883e+00 2.0259236084e-17 1.2373513904e-09 2.0259236084e-17 -4.4939311883e+00 8.2490028524e-10 1.2373513904e-09 8.2490028524e-10 -2.4596777041e+00" polarizability="5.3474019208e+00 -1.1523829181e-14 1.3861924470e-09 -1.1061693872e-14 5.3474019208e+00 9.2413153267e-10 -2.8218156290e-08 -1.8812371504e-08 7.7128890533e+00" dipole_derivatives="-4.0769661960e-01 4.1369915286e-12 1.5116621376e-11 8.7780185817e-12 -4.0769661986e-01 -3.9156863424e-12 1.6782622514e-07 -5.0964024667e-08 -3.5067375258e-01 4.0769535192e-01 -7.0811500217e-15 -3.3483439856e-11 6.5601695500e-14 4.0769535213e-01 -2.2426957001e-11 -1.6783305301e-07 5.0962969955e-08 3.5067388503e-01" charge=0 multiplicity=1 method=b3lyp basis=def2-svpd config_type=hf sample_index=5 temperature=500.0 units=atomic
F         0.0000000000       0.0000000000       0.0515691565  -4.663681019007e-11  -3.109440144508e-11  -7.953944172191e-02
H        -0.0000000006      -0.0000000004      -0.9721247182   4.662138589628e-11   3.108029467377e-11   7.954228485010e-02
2
Properties=species:S:1:pos:R:3:forces:R:3 energy=-1.003735205649e+02 dipole="2.3698655611e-10 1.5799765931e-10 -6.8941631033e-01" quadrupole="-4.3672047199e+00 -5.6097397733e-16 -5.5040568055e-10 -5.6097397733e-16 -4.3672047199e+00 -3.6693799423e-10 -5.5040568055e-10 -3.6693799423e-10 -2.8232791092e+00" polarizability="4.9894548205e+00 2.5365788290e-15 -3.6146136964e-10 4.1599131118e-15 4.9894548205e+00 -2.4097423172e-10 3.1657054643e-09 2.1104209105e-09 6.0412919231e+00" dipole_derivatives="-4.1801918867e-01 -1.2712700938e-11 -3.4775331407e-11 -2.4239023846e-11 -4.1801918890e-01 -3.1418561519e-11 -2.1111040693e-07 -1.2603160182e-07 -3.4328356388e-01 4.1802067421e-01 -7.2427919779e-14 2.5709666522e-11 -2.6172624298e-14 4.1802067449e-01 1.6897841825e-11 2.1109725079e-07 1.2601852895e-07 3.4328328027e-01" charge=0 multiplicity=1 method=b3lyp basis=def2-svpd config_type=hf sample_index=6 temperature=500.0 units=atomic
F        -0.0000000000      -0.0000000000       0.0439647479  -2.469676026063e-11  -1.646232715262e-11   7.181417797066e-02
H         0.0000000003       0.0000000002      -0.8287748158   2.468644559484e-11   1.645838239144e-11  -7.181460792789e-02
2
Properties=species:S:1:pos:R:3:forces:R:3 energy=-1.003666250602e+02 dipole="-5.3846557358e-10 -3.0769388030e-10 -7.9635596189e-01" quadrupole="-4.5029140531e+00 9.9978722461e-16 1.4557986113e-09 9.9978722461e-16 -4.5029140531e+00 8.3189059051e-10 1.4557986113e-09 8.3189059051e-10 -2.4283439457e+00" polarizability="5.3752309093e+00 3.6788180264e-15 1.6793995570e-09 3.8719536812e-15 5.3752309093e+00 9.5961643470e-10 -3.6856189794e-08 -2.1060937141e-08 7.8593747236e+00" dipole_derivatives="-4.0706017888e-01 2.3684846428e-11 4.0620424387e-11 -6.0617964732e-12 -4.0706017890e-01 3.1295927291e-11 4.1725123356e-08 1.3055968806e-07 -3.5077365778e-01 4.0705876598e-01 -2.9110321218e-14 -3.7977766415e-11 2.6727106010e-13 4.0705876599e-01 -2.1723628873e-11 -4.1734227185e-08 -1.3056436488e-07 3.5077388176e-01" charge=0 multiplicity=1 method=b3lyp basis=def2-svpd config_type=hf sample_index=7 temperature=500.0 units=atomic
F         0.0000000000       0.0000000000       0.0521519964  -5.779027071405e-11  -3.300038029151e-11  -8.542407714960e-02
H        -0.0000000007      -0.0000000004      -0.9831117715   5.776182428482e-11   3.300738228598e-11   8.542706721644e-02
2
Properties=species:S:1:pos:R:3:forces:R:3 energy=-1.003767350960e+02 dipole="-7.8110123528e-11 1.4904622028e-15 -7.2891024468e-01" quadrupole="-4.4200380114e+00 -3.6121568812e-15 1.9251108596e-10 -3.6121568812e-15 -4.4200380114e+00 -4.9197312720e-16 1.9251108596e-10 -4.9197312720e-16 -2.6883427225e+00" polarizability="5.1316148557e+00 1.0589527056e-14 1.6358051586e-10 1.0784354731e-14 5.1316148557e+00 1.4057580297e-15 -1.9288954793e-09 -9.3614455841e-14 6.6586962879e+00" dipole_derivatives="-4.1333475004e-01 6.1104933008e-12 2.7601249945e-11 1.7994659510e-11 -4.1333475055e-01 3.5591022795e-11 -6.0823374115e-08 1.8941626045e-08 -3.4772694625e-01 4.1333532525e-01 1.9975673696e-15 -6.6551305714e-12 -3.7163082299e-13 4.1333532579e-01 1.0070253468e-13 6.0829452586e-08 -1.8937351687e-08 3.4772670542e-01" charge=0 multiplicity=1 method=b3lyp basis=def2-svpd config_type=hf sample_index=8 temperature=500.0 units=atomic
F         0.0000000000       0.0000000000       0.0470102277  -1.005066846381e-12   1.895450151985e-14  -9.553522516472e-03
H        -0.0000000001      -0.0000000000      -0.8861848336   1.024891266265e-12  -5.447486310419e-16   9.554461637551e-03
2
Properties=species:S:1:pos:R:3:forces:R:3 energy=-1.003766242271e+02 dipole="-7.8047986046e-11 7.3148885136e-15 -7.3209413940e-01" quadrupole="-4.4241530469e+00 -3.1520910672e-15 1.9324268083e-10 -3.1520910672e-15 -4.4241530469e+00 -3.6309078122e-15 1.9324268083e-10 -3.6309078122e-15 -2.6768849692e+00" polarizability="5.1430751283e+00 8.2418830870e-15 1.6711455985e-10 8.5230989362e-15 5.1430751283e+00 1.2361673005e-14 -2.0237259332e-09 -2.2553017883e-13 6.7110906927e+00" dipole_derivatives="-4.1299679459e-01 5.0625832864e-12 2.9968806461e-11 1.2051326814e-11 -4.1299679470e-01 1.2839220949e-11 8.2990447847e-08 -2.5865837250e-08 -3.4798918917e-01 4.1299727213e-01 4.4340748613e-15 -7.1717210598e-12 -4.7828500898e-14 4.1299727226e-01 -7.3390889433e-14 -8.2984952243e-08 2.5861590647e-08 3.4798895969e-01" charge=0 multiplicity=1 method=b3lyp basis=def2-svpd config_type=hf sample_index=9 temperature=500.0 units=atomic
F         0.0000000000       0.0000000000       0.0472542170  -1.575134592711e-12  -6.964096599932e-15  -1.463779425674e-02
H        -0.0000000001      -0.0000000000      -0.8907842507   1.559963396079e-12   4.633367220406e-16   1.463878731774e-02
2
Properties=species:S:1:pos:R:3:forces:R:3 energy=-1.003766687587e+02 dipole="7.8386996877e-11 -3.2878034604e-15 -7.1571786024e-01" quadrupole="-4.4027625745e+00 -6.6704515035e-15 -1.8947401178e-10 -6.6704515035e-15 -4.4027625745e+00 -2.0448062249e-15 -1.8947401178e-10 -2.0448062249e-15 -2.7349132049e+00" polarizability="5.0841409146e+00 3.2503738297e-14 -1.4910206926e-10 3.3831908702e-14 5.0841409146e+00 3.2609298008e-15 1.5790820069e-09 3.6286043608e-14 6.4458630077e+00" dipole_derivatives="-4.1479243757e-01 1.9185838066e-11 1.8561677499e-11 -1.1673477001e-11 -4.1479243736e-01 1.2700027024e-12 -3.7337383185e-08 2.0625201547e-07 -3.4649626956e-01 4.1479338638e-01 -1.2958260680e-13 7.7155884546e-12 -8.7423876710e-14 4.1479338611e-01 2.0429541176e-13 3.7346792325e-08 -2.0623966424e-07 3.4649593381e-01" charge=0 multiplicity=1 method=b3lyp basis=def2-svpd config_type=hf sample_index=10 temperature=500.0 units=atomic
F        -0.0000000000      -0.0000000000       0.0459971425  -1.448529984258e-12  -7.454544700680e-15   1.362283438822e-02
H         0.0000000001       0.0000000000      -0.8670872709   1.491984425878e-12   1.143969861348e-15  -1.362225918645e-02
2
Properties=species:S:1:pos:R:3:forces:R:3 energy=-1.003768136063e+02 dipole="-1.3809284330e-15 -1.9144071991e-15 -7.2366719002e-01" quadrupole="-4.4132158656e+00 6.8949977201e-16 4.8181621054e-15 6.8949977201e-16 -4.4132158656e+00 -8.3416440544e-15 4.8181621054e-15 -8.3416440544e-15 -2.7070267125e+00" polarizability="5.1127457648e+00 -9.8227231661e-15 -8.6148131290e-15 -1.0746979581e-14 5.1127457648e+00 2.6510763526e-14 1.8075169682e-14 -7.1145357358e-14 6.5732933984e+00" dipole_derivatives="-4.1390269367e-01 -5.7777375083e-12 -3.3055637495e-12 3.8430126391e-14 -4.1390269368e-01 8.9968747034e-12 6.9920458312e-09 8.5210449807e-09 -3.4726588927e-01 4.1390341944e-01 1.0622874525e-13 -2.1453603282e-13 1.3951275952e-13 4.1390341945e-01 -1.5194407816e-14 -6.9918792978e-09 -8.5188245347e-09 3.4726561189e-01" charge=0 multiplicity=1 method=b3lyp basis=def2-svpd config_type=hf sample_index=11 temperature=500.0 units=atomic
F         0.0000000000       0.0000000000       0.0466080240   2.022425215650e-14   4.909068709004e-14  -7.625353656540e-04
H        -0.0000000000      -0.0000000000      -0.8786029340   5.114125751791e-16  -3.040666832646e-18   7.633979308956e-04
2
Properties=species:S:1:pos:R:3:forces:R:3 energy=-1.003753344423e+02 dipole="1.5748160447e-10 7.8740831868e-11 -7.0004014556e-01" quadrupole="-4.3817504161e+00 -3.7459004337e-15 -3.7177060453e-10 -3.7459004337e-15 -4.3817504161e+00 -1.8588657503e-10 -3.7177060453e-10 -1.8588657503e-10 -2.7883198294e+00" polarizability="5.0277173982e+00 1.3847495718e-15 -2.6401212637e-10 1.7611228348e-15 5.0277173982e+00 -1.3201587522e-10 2.4851475124e-09 1.2425063336e-09 6.2016228815e+00" dipole_derivatives="-4.1665907515e-01 8.6911895761e-12 -6.9626449861e-12 2.1370802472e-12 -4.1665907532e-01 -1.3633469344e-11 -1.0083395230e-07 -3.9340641855e-08 -3.4471102469e-01 4.1666041957e-01 2.0661264986e-13 1.6175408790e-11 -4.1499314304e-13 4.1666041976e-01 8.0878773124e-12 1.0083767155e-07 3.9321379486e-08 3.4471070177e-01" charge=0 multiplicity=1 method=b3lyp basis=def2-svpd config_type=hf sample_index=12 temperature=500.0 units=atomic
F        -0.0000000000      -0.0000000000       0.0447879835  -1.036960623512e-11  -5.213857992349e-12   4.616616159970e-02
H         0.0000000002       0.0000000001      -0.8442935430   1.038608884025e-11   5.194013097557e-12  -4.616651282178e-02
2
Properties=species:S:1:pos:R:3:forces:R:3 energy=-1.003642079125e+02 dipole="4.7858799325e-10 3.1905586700e-10 -6.6117372984e-01" quadrupole="-4.3272682632e+00 -1.2609586964e-15 -1.0627966870e-09 -1.2609586964e-15 -4.3272682632e+00 -7.0853186426e-10 -1.0627966870e-09 -7.0853186426e-10 -2.9111604841e+00" polarizability="4.8874816486e+00 9.5795333754e-15 -5.4043436818e-10 9.7716917533e-15 4.8874816486e+00 -3.6028576064e-10 4.0876373162e-09 2.7251097309e-09 5.6343237283e+00" dipole_derivatives="-4.2209018717e-01 6.9775254217e-12 -5.7340093083e-11 -2.3496292646e-11 -4.2209018720e-01 -5.5730067097e-11 -2.2818746892e-08 8.0362771993e-08 -3.3851457172e-01 4.2209162576e-01 -6.2917645941e-14 6.0955183112e-11 -1.5472358945e-14 4.2209162576e-01 4.0285852999e-11 2.2817747691e-08 -8.0360218480e-08 3.3851459379e-01" charge=0 multiplicity=1 method=b3lyp basis=def2-svpd config_type=hf sample_index=13 temperature=500.0 units=atomic
F        -0.0000000000      -0.0000000000       0.0417570316  -1.140858169801e-10  -7.604794438866e-11   1.575776536773e-01
H         0.0000000006       0.0000000004      -0.7871573890   1.140629411816e-10   7.604051563866e-11  -1.575783827440e-01
2
Properties=species:S:1:pos:R:3:forces:R:3 energy=-1.003748451135e+02 dipole="-2.3294376055e-10 -1.5530543876e-10 -7.5295605269e-01" quadrupole="-4.4506064443e+00 9.2641554594e-15 5.9410517771e-10 9.2641554594e-15 -4.4506064443e+00 3.9607589677e-10 5.9410517771e-10 3.9607589677e-10 -2.5997596347e+00" polarizability="5.2182284540e+00 -3.9852695619e-14 5.7112330903e-10 -4.0049687616e-14 5.2182284540e+00 3.8072633166e-10 -8.3048914622e-09 -5.5364365777e-09 7.0645845957e+00" dipole_derivatives="-4.1089989339e-01 -2.7237200169e-11 4.1542707141e-11 8.0041665634e-12 -4.1089989349e-01 4.1111826625e-11 1.7181184253e-07 1.9414331254e-08 -3.4939849086e-01 4.1089965303e-01 1.7512702987e-14 -1.9161798619e-11 6.0416209854e-15 4.1089965314e-01 -1.2662753819e-11 -1.7180210032e-07 -1.9422768949e-08 3.4939839168e-01" charge=0 multiplicity=1 method=b3lyp basis=def2-svpd config_type=hf sample_index=14 temperature=500.0 units=atomic
F         0.0000000000       0.0000000000       0.0488488876  -1.354027011086e-11  -9.003798448931e-12  -4.368517653265e-02
H        -0.0000000003      -0.0000000002      -0.9208452171   1.351540111511e-11   9.010723465049e-12   4.368726234398e-02
2
Properties=species:S:1:pos:R:3:forces:R:3 energy=-1.003728493373e+02 dipole="3.1627875386e-10 1.5813792769e-10 -6.8637675617e-01" quadrupole="-4.3629962987e+00 -4.6493321210e-15 -7.3112296232e-10 -4.6493321210e-15 -4.3629962987e+00 -3.6555914217e-10 -7.3112296232e-10 -3.6555914217e-10 -2.8330940050e+00" polarizability="4.9785006517e+00 6.0564763690e-15 -4.6881131444e-10 5.9217949675e-15 4.9785006517e+00 -2.3441654853e-10 4.0277056863e-09 2.0138722833e-09 5.9961678723e+00" dipole_derivatives="-4.1842400199e-01 1.9301824022e-11 -5.6316548625e-11 -8.7658446384e-12 -4.1842400202e-01 -1.0843165959e-11 2.5837337825e-07 -2.0022150604e-08 -3.4284054140e-01 4.1842551453e-01 1.4105040055e-14 3.4897267351e-11 -5.5312276197e-14 4.1842551454e-01 1.7364425188e-11 -2.5837060269e-07 2.0035112458e-08 3.4284028269e-01" charge=0 multiplicity=1 method=b3lyp basis=def2-svpd config_type=hf sample_index=15 temperature=500.0 units=atomic
F        -0.0000000000      -0.0000000000       0.0437285629  -3.676623919216e-11  -1.836174700690e-11   7.975088454515e-02
H         0.0000000004       0.0000000002      -0.8243225168   3.674940377240e-11   1.837552714496e-11  -7.975130187147e-02
2
Properties=species:S:1:pos:R:3:forces:R:3 energy=-1.003764067568e+02 dipole="7.8502490062e-11 7.8490405704e-11 -7.1078345593e-01" quadrupole="-4.3962064505e+00 -6.4462101336e-16 -1.8834709906e-10 -6.4462101336e-16 -4.3962064505e+00 -1.8834007708e-10 -1.8834709906e-10 -1.8834007708e-10 -2.7519522456e+00" polarizability="5.0663849019e+00 -7.8278765006e-15 -1.4368615383e-10 -7.9772163227e-15 5.0663849019e+00 -1.4371547014e-10 1.4644106964e-09 1.4647729752e-09 6.3679893026e+00" dipole_derivatives="-4.1536320581e-01 1.7532435797e-11 4.0284282441e-12 1.0130185353e-12 -4.1536320582e-01 1.0467912170e-11 -1.1758813367e-07 1.2967887875e-07 -3.4597334195e-01 4.1536429391e-01 -1.2795516208e-13 7.6327300693e-12 2.4779784008e-14 4.1536429393e-01 7.6345956451e-12 1.1762132934e-07 -1.2967668606e-07 3.4597299520e-01" charge=0 multiplicity=1 method=b3lyp basis=def2-svpd config_type=hf sample_index=16 temperature=500.0 units=atomic
F        -0.0000000000      -0.0000000000       0.0456172361  -2.568582177413e-12  -2.511121841360e-12   2.323860144958e-02
H         0.0000000001       0.0000000001      -0.8599256972   2.566367340417e-12   2.566729009706e-12  -2.323834169431e-02
2
Properties=species:S:1:pos:R:3:forces:R:3 energy=-1.003768102110e+02 dipole="-3.1991820448e-15 -4.2182778520e-15 -7.2447476300e-01" quadrupole="-4.4142703890e+00 -6.0152113747e-15 3.7283611552e-15 -6.0152113747e-15 -4.4142703890e+00 -1.6975253070e-15 3.7283611552e-15 -1.6975253070e-15 -2.7041638607e+00" polarizability="5.1156519258e+00 2.8467770714e-14 -7.3306136098e-15 2.8480457961e-14 5.1156519258e+00 1.8258730392e-14 1.5040808818e-14 7.8656678808e-14 6.5863770863e+00" dipole_derivatives="-4.1381426517e-01 2.2178072577e-11 -2.2938337092e-11 -2.5815613842e-11 -4.1381426520e-01 1.6113952957e-11 -4.9523440904e-08 2.7478019859e-12 -3.4733938195e-01 4.1381496825e-01 6.0269233560e-14 3.2756885541e-14 -1.0050442436e-13 4.1381496830e-01 1.8783419691e-13 4.9539927716e-08 1.3489209749e-11 3.4733911119e-01" charge=0 multiplicity=1 method=b3lyp basis=def2-svpd config_type=hf sample_index=17 temperature=500.0 units=atomic
F         0.0000000000       0.0000000000       0.0466700094   3.899678851788e-14   4.453811504611e-15  -2.151494828422e-03
H        -0.0000000000      -0.0000000000      -0.8797714143  -6.999618128661e-16  -1.504971988903e-15   2.152371811043e-03
2
Properties=species:S:1:pos:R:3:forces:R:3 energy=-1.003768038856e+02 dipole="2.4238866185e-15 1.6225700308e-15 -7.2121373160e-01" quadrupole="-4.4100037856e+00 3.1082142492e-15 -1.7729331354e-16 3.1082142492e-15 -4.4100037856e+00 -3.0355187100e-15 -1.7729331354e-16 -3.0355187100e-15 -2.7156905825e+00" polarizability="5.1039169682e+00 -1.2542995062e-14 -1.5368642345e-14 -1.2546042895e-14 5.1039169682e+00 2.6634615433e-15 2.5495114093e-14 -3.0812150118e-15 6.5337011930e+00" dipole_derivatives="-4.1417351834e-01 4.2105975150e-11 7.4639450191e-12 2.4563934379e-13 -4.1417351835e-01 1.3003706490e-11 1.5054169022e-07 1.8236936961e-07 -3.4703775081e-01 4.1417431257e-01 2.0674786524e-13 -5.8681550696e-14 -1.0740356680e-13 4.1417431261e-01 -3.6377456976e-14 -1.5055590108e-07 -1.8236420707e-07 3.4703745269e-01" charge=0 multiplicity=1 method=b3lyp basis=def2-svpd config_type=hf sample_index=18 temperature=500.0 units=atomic
F        -0.0000000000      -0.0000000000       0.0464196268  -1.575541063159e-14   1.746134463969e-14   3.537476571705e-03
H         0.0000000000       0.0000000000      -0.8750514792  -1.070836008981e-15   9.978957677243e-16  -3.536671399206e-03
2
Properties=species:S:1:pos:R:3:forces:R:3 energy=-1.003767263946e+02 dipole="-7.8099361165e-11 -3.1606582534e-16 -7.2921880416e-01" quadrupole="-4.4204377253e+00 -5.6717742594e-15 1.9258187372e-10 -5.6717742594e-15 -4.4204377253e+00 2.3368396437e-15 1.9258187372e-10 2.3368396437e-15 -2.6872360028e+00" polarizability="5.1327254300e+00 3.1051173533e-14 1.6392516863e-10 3.0063412056e-14 5.1327254300e+00 -5.8040958193e-15 -1.9378963447e-09 3.3311644098e-14 6.6637562724e+00" dipole_derivatives="-4.1330177287e-01 -1.7820907137e-11 -6.2286194391e-12 1.8229513875e-11 -4.1330177308e-01 -1.1395320975e-11 -8.6912199659e-08 -4.1613712476e-08 -3.4775282210e-01 4.1330233887e-01 7.1108111074e-14 -7.0804230145e-12 1.1404929926e-14 4.1330233905e-01 -6.8206092831e-14 8.6900875385e-08 4.1617181923e-08 3.4775258279e-01" charge=0 multiplicity=1 method=b3lyp basis=def2-svpd config_type=hf sample_index=19 temperature=500.0 units=atomic
F         0.0000000000       0.0000000000       0.0470338814  -1.025616501070e-12  -4.034226648348e-14  -1.005448107504e-02
H        -0.0000000001      -0.0000000000      -0.8866307280   1.077885297210e-12   4.864561217359e-16   1.005542454962e-02
2
Properties=species:S:1:pos:R:3:forces:R:3 energy=-1.003763386810e+02 dipole="-7.7940521013e-11 -7.7932551410e-11 -7.3740575342e-01" quadrupole="-4.4309717650e+00 -1.5390880382e-14 1.9446031686e-10 -1.5390880382e-14 -4.4309717650e+00 1.9445831157e-10 1.9446031686e-10 1.9445831157e-10 -2.6575840463e+00" polarizability="5.1621983022e+00 4.3946459114e-14 1.7300344349e-10 4.6709102874e-14 5.1621983022e+00 1.7300570036e-10 -2.1926334155e-09 -2.1927386988e-09 6.7994047096e+00" dipole_derivatives="-4.1244412900e-01 1.9630708971e-12 1.7496615158e-11 -2.3105079892e-12 -4.1244412918e-01 -4.9020771201e-12 -3.6612379795e-10 -7.2896161329e-08 -3.4839838413e-01 4.1244442965e-01 -1.3717618225e-13 -6.8606741768e-12 5.5665572126e-14 4.1244442986e-01 -6.8192018365e-12 3.8985481510e-10 7.2905015358e-08 3.4839815861e-01" charge=0 multiplicity=1 method=b3lyp basis=def2-svpd config_type=hf sample_index=20 temperature=500.0 units=atomic
F         0.0000000000       0.0000000000       0.0476608637  -2.415845044019e-12  -2.404249897882e-12  -2.271375261178e-02
H        -0.0000000001      -0.0000000001      -0.8984499042   2.400919483231e-12   2.401765340183e-12   2.271491226513e-02
2
Properties=species:S:1:pos:R:3:forces:R:3 energy=-1.003729888036e+02 dipole="-3.0970083965e-10 -1.5485395869e-10 -7.6565465653e-01" quadrupole="-4.4662851255e+00 8.8577612921e-16 8.0381795061e-10 8.8577612921e-16 -4.4662851255e+00 4.0191013193e-10 8.0381795061e-10 4.0191013193e-10 -2.5511095633e+00" polarizability="5.2640542034e+00 -9.5685427476e-15 8.1876104520e-10 -9.7753638353e-15 5.2640542034e+00 4.0939467208e-10 -1.3378913243e-08 -6.6893061193e-09 7.2886469234e+00" dipole_derivatives="-4.0971161297e-01 -2.3016374331e-11 6.9838349726e-12 3.4090742996e-12 -4.0971161330e-01 3.1247633387e-11 1.0817352569e-07 -4.7114978585e-08 -3.5000913732e-01 4.0971099226e-01 -1.1344737476e-12 -2.4390050330e-11 1.0356125076e-12 4.0971099258e-01 -1.2247640835e-11 -1.0817777230e-07 4.7096743172e-08 3.5000918050e-01" charge=0 multiplicity=1 method=b3lyp basis=def2-svpd config_type=hf sample_index=21 temperature=500.0 units=atomic
F         0.0000000000       0.0000000000       0.0498168353  -2.354702002692e-11  -1.175575951556e-11  -5.819853496413e-02
H        -0.0000000004      -0.0000000002      -0.9390918967   2.354100227118e-11   1.177044048034e-11   5.820086790446e-02
2
Properties=species:S:1:pos:R:3:forces:R:3 energy=-1.003756707666e+02 dipole="1.5735164697e-10 7.8671506065e-11 -7.0272846143e-01" quadrupole="-4.3853913964e+00 1.2310450141e-15 -3.7300136428e-10 1.2310450141e-15 -4.3853913964e+00 -1.8649801701e-10 -3.7300136428e-10 -1.8649801701e-10 -2.7793142978e+00" polarizability="5.0373949628e+00 -1.2530328923e-14 -2.6984895968e-10 -1.2352994509e-14 5.0373949628e+00 -1.3493262406e-10 2.5897703399e-09 1.2948907434e-09 6.2428487231e+00" dipole_derivatives="-4.1632765080e-01 7.3083681282e-12 -1.5301578140e-11 -1.1402080652e-11 -4.1632765064e-01 -2.6579283369e-11 8.0735723662e-08 -3.5205532933e-08 -3.4504364395e-01 4.1632894153e-01 -6.7849178298e-14 1.5993732807e-11 1.2298108962e-14 4.1632894137e-01 8.2204879823e-12 -8.0711437533e-08 3.5189962055e-08 3.4504331382e-01" charge=0 multiplicity=1 method=b3lyp basis=def2-svpd config_type=hf sample_index=22 temperature=500.0 units=atomic
F        -0.0000000000      -0.0000000000       0.0449957766  -8.925734196630e-12  -4.485582419503e-12   4.015975343256e-02
H         0.0000000002       0.0000000001      -0.8482106287   8.992317220447e-12   4.497323027989e-12  -4.015999805423e-02
2
Properties=species:S:1:pos:R:3:forces:R:3 energy=-1.003767834383e+02 dipole="-7.2718129083e-15 1.0372959075e-14 -7.1974923579e-01" quadrupole="-4.4080804378e+00 -3.2938928228e-15 2.8200734816e-15 -3.2938928228e-15 -4.4080804378e+00 -4.2084967693e-15 2.8200734816e-15 -4.2084967693e-15 -2.7208379256e+00" polarizability="5.0986471294e+00 6.6033074487e-15 -1.1971653717e-14 6.6038017075e-15 5.0986471294e+00 8.5965528707e-15 1.5127137185e-13 -2.2847391676e-13 6.5101802407e+00" dipole_derivatives="-4.1433676706e-01 1.3396176968e-12 -1.0819856754e-11 -2.9808208901e-12 -4.1433676697e-01 1.1975236210e-11 1.6038526063e-07 -1.6149412363e-07 -3.4689729525e-01 4.1433760221e-01 -2.8505562144e-14 2.4769295017e-13 1.4035773493e-13 4.1433760213e-01 1.7324913285e-13 -1.6038342876e-07 1.6147902460e-07 3.4689698527e-01" charge=0 multiplicity=1 method=b3lyp basis=def2-svpd config_type=hf sample_index=23 temperature=500.0 units=atomic
F        -0.0000000000      -0.0000000000       0.0463071107  -1.085318989621e-14  -1.479726902771e-15   6.162795585916e-03
H         0.0000000000       0.0000000000      -0.8729304487  -1.114667364550e-15   1.687893719896e-15  -6.162036985282e-03
2
Properties=species:S:1:pos:R:3:forces:R:3 energy=-1.003732373729e+02 dipole="3.1611364274e-10 1.5804729854e-10 -6.8809433879e-01" quadrupole="-4.3653769678e+00 -8.3337915000e-15 -7.3267992572e-10 -8.3337915000e-15 -4.3653769678e+00 -3.6633709679e-10 -7.3267992572e-10 -3.6633709679e-10 -2.8275581655e+00" polarizability="4.9846910498e+00 3.5404059324e-14 -4.7622135274e-10 3.5419473664e-14 4.9846910498e+00 -2.3812297254e-10 4.1357381583e-09 2.0679699445e-09 6.0216260481e+00" dipole_derivatives="-4.1819436191e-01 -4.6877799056e-12 -1.6215841868e-11 -1.6948578473e-11 -4.1819436191e-01 -7.2998157587e-12 2.3756796530e-07 -1.2123718696e-07 -3.4309304657e-01 4.1819585964e-01 2.7546716466e-14 3.4132933290e-11 -2.2757161673e-14 4.1819585967e-01 1.7246937011e-11 -2.3754603840e-07 1.2122469695e-07 3.4309277280e-01" charge=0 multiplicity=1 method=b3lyp basis=def2-svpd config_type=hf sample_index=24 temperature=500.0 units=atomic
F        -0.0000000000      -0.0000000000       0.0438620631  -3.456018464956e-11  -1.728991096702e-11   7.523173892936e-02
H         0.0000000004       0.0000000002      -0.8268391153   3.456026639840e-11   1.728086611882e-11  -7.523216170159e-02
2