4
Properties=species:S:1:pos:R:3:forces:R:3 energy=-5.650727223772e+01 dipole="-2.1189334159e-03 6.6221484998e-01 -5.8884563015e-03" quadrupole="-4.6886465308e+00 -1.7516814195e-02 1.5281676455e-01 -1.7516814195e-02 -6.6726905725e+00 -2.0390831941e-02 1.5281676455e-01 -2.0390831941e-02 -5.0172461442e+00" polarizability="1.4650137762e+01 -6.6934243345e-01 5.9160355973e-01 -6.6934385411e-01 1.4059782519e+01 3.2277405300e-01 5.9160457455e-01 3.2277391576e-01 1.2831765188e+01" dipole_derivatives="-3.1321579568e-01 1.4080050034e-02 2.6840990674e-02 -5.9549202698e-02 -4.6887338814e-01 3.0068896462e-02 2.4777074207e-02 -1.3731900464e-02 -4.0004185290e-01 6.7951970532e-02 9.9859183402e-02 1.9967191651e-03 1.6425027147e-01 1.4676696615e-01 -8.1164533688e-03 -1.8813328677e-02 3.5675299661e-03 1.6781093092e-01 1.2660343031e-01 -5.6496386386e-02 -5.6506133567e-02 -5.3186569101e-02 1.5803780906e-01 -1.2810546955e-01 -1.7649373943e-02 -9.0732685550e-02 1.1924200025e-01 1.1866458569e-01 -5.7449027331e-02 2.7673742340e-02 -5.1515624119e-02 1.6406853735e-01 1.0615321801e-01 1.1684234656e-02 1.0089941136e-01 1.1298685420e-01" charge=0 multiplicity=1 method=b3lyp basis=def2-svpd config_type=nh3 sample_index=0 temperature=500.0 units=atomic
N         0.0065601483      -0.0762164712      -0.0020325239  -9.495360146187e-02  -9.997077314939e-03   7.831041824459e-02
H        -1.0228869805       0.3769435882      -0.0396134360   5.774103393193e-02  -2.594580623427e-02   9.238394584694e-03
H         0.5083135653       0.3474326051       0.7893307008  -1.113856102348e-02  -4.540125826940e-03   2.811857971260e-03
H         0.4234244170       0.3346021543      -0.7214766665   4.835338362546e-02   4.048366694746e-02  -9.036351169818e-02
4
Properties=species:S:1:pos:R:3:forces:R:3 energy=-5.651096769661e+01 dipole="-2.7365521321e-03 6.3373028462e-01 2.1118288556e-03" quadrupole="-4.7199157644e+00 -3.6447040009e-02 2.7215534381e-02 -3.6447040009e-02 -6.8194974738e+00 1.0841765410e-02 2.7215534381e-02 1.0841765410e-02 -4.9524314056e+00" polarizability="1.5895519663e+01 -6.5074599928e-01 2.3278502553e-01 -6.5074624525e-01 1.4671655271e+01 1.5892762340e-01 2.3278354430e-01 1.5893206541e-01 1.4072653728e+01" dipole_derivatives="-2.7478999604e-01 1.0421593653e-02 1.2484807179e-02 -5.7786162147e-02 -4.4763501417e-01 1.4757620896e-02 1.2628322995e-02 -4.0804562811e-03 -3.5949357932e-01 4.8043530208e-02 9.9732992922e-02 -4.5069261437e-04 1.5876485386e-01 1.3891470185e-01 -2.2948019199e-03 -6.1565810573e-03 7.2962409714e-04 1.5554778678e-01 1.1358048471e-01 -5.4554563255e-02 -4.7883004081e-02 -5.2886281859e-02 1.5218082050e-01 -1.1606011938e-01 -2.2828779815e-02 -9.1692532531e-02 1.0077334683e-01 1.1316624370e-01 -5.5599914072e-02 3.5850582182e-02 -4.8094708424e-02 1.5654063416e-01 1.0359821478e-01 1.6357850596e-02 9.5045451545e-02 1.0317122493e-01" charge=0 multiplicity=1 method=b3lyp basis=def2-svpd config_type=nh3 sample_index=1 temperature=500.0 units=atomic
N         0.0070756586      -0.0768310717      -0.0019952381  -6.105476368983e-02   3.405200943655e-02   2.570091454113e-02
H        -1.0639834343       0.3816698718      -0.0029312157   7.296638566609e-02  -2.889446892708e-02   7.308023111256e-04
H         0.4933750290       0.3492294886       0.8267068478  -1.405312000394e-02  -9.192313670494e-03  -1.586148917371e-02
H         0.4722967269       0.3366184611      -0.7960530951   2.140555676533e-03   4.032949352969e-03  -1.057016059900e-02
4
Properties=species:S:1:pos:R:3:forces:R:3 energy=-5.651979596511e+01 dipole="9.3210454834e-03 6.5930946953e-01 -1.3864171708e-02" quadrupole="-4.8623055075e+00 2.8555673598e-02 1.7572142821e-01 2.8555673598e-02 -6.6498900256e+00 -5.8797611522e-02 1.7572142821e-01 -5.8797611522e-02 -4.8311190630e+00" polarizability="1.2882024826e+01 2.4969996896e-01 3.0522148138e-01 2.4969956515e-01 1.3802749119e+01 9.2503263496e-02 3.0522152852e-01 9.2503538404e-02 1.3413129209e+01" dipole_derivatives="-3.9540807649e-01 -4.1853417795e-03 2.9239493128e-03 2.2824448803e-02 -4.9905205063e-01 1.5006233615e-02 5.2220097333e-03 -8.9406722838e-03 -3.5964583275e-01 1.0260285777e-01 1.0967472343e-01 7.6168710853e-03 1.2804386194e-01 1.7138762079e-01 -1.1622745889e-02 -1.3700344619e-02 3.5311532786e-03 1.5468512047e-01 1.5247612077e-01 -5.2887921455e-02 -3.1991065082e-02 -7.0878098326e-02 1.6694352257e-01 -1.2674106648e-01 -2.8358687301e-02 -8.7716825612e-02 1.1203251939e-01 1.4032846322e-01 -5.2599972044e-02 2.1449221461e-02 -7.9990410884e-02 1.6072089641e-01 1.2335472993e-01 3.6835471193e-02 9.3126153580e-02 9.2928765922e-02" charge=0 multiplicity=1 method=b3lyp basis=def2-svpd config_type=nh3 sample_index=2 temperature=500.0 units=atomic
N        -0.0038957706      -0.0738542092       0.0024516098   4.862979455006e-02  -8.248330396289e-03   1.856606152945e-02
H        -0.8850340633       0.3278368740      -0.0558047883  -4.912820672353e-02   1.687382727647e-02   9.361145031056e-03
H         0.5080602590       0.3413987115       0.8139508478  -1.484874738614e-02  -8.680966308836e-03  -1.280552738805e-02
H         0.4311030062       0.3569206661      -0.7922095853   1.534725073027e-02   5.427438868806e-05  -1.512216620295e-02
4
Properties=species:S:1:pos:R:3:forces:R:3 energy=-5.650740032760e+01 dipole="3.9799381971e-02 6.0798897889e-01 3.8203604775e-02" quadrupole="-4.5927026543e+00 1.4237442154e-01 -1.7922883704e-01 1.4237442154e-01 -6.7274257993e+00 1.5253955642e-01 -1.7922883704e-01 1.5253955642e-01 -4.9617320015e+00" polarizability="1.2617452509e+01 4.5405485819e-01 4.3324440972e-01 4.5405534981e-01 1.3722874012e+01 5.3068357144e-01 4.3324437269e-01 5.3068401557e-01 1.3181568692e+01" dipole_derivatives="-4.5171360893e-01 2.7114688096e-03 4.8277184218e-02 3.3666438172e-02 -5.9115333534e-01 3.6995679072e-02 4.9174550755e-02 9.8497834571e-03 -3.6659708715e-01 1.4707500248e-01 1.0500872894e-01 -1.6364073722e-02 9.8704328324e-02 2.1796659071e-01 4.0319168346e-03 -8.4886150121e-03 -9.5553270624e-03 1.6275915709e-01 1.3319394097e-01 -4.8656036829e-02 -4.6859849142e-02 -8.0570778792e-02 1.6159295955e-01 -1.4382698006e-01 -4.4275136811e-02 -8.2841206366e-02 7.6640978677e-02 1.7144395844e-01 -5.9059919081e-02 1.4949137395e-02 -5.1799445165e-02 2.1159141532e-01 1.0279957680e-01 3.5875593567e-03 8.2545361602e-02 1.2719931073e-01" charge=0 multiplicity=1 method=b3lyp basis=def2-svpd config_type=nh3 sample_index=3 temperature=500.0 units=atomic
N        -0.0125251512      -0.0654723984      -0.0141824043   9.245981974632e-02  -3.475679224486e-02   8.284590611715e-02
H        -0.8812789116       0.2575241644       0.0896343422  -8.775108513298e-02   3.650021657427e-02  -6.825909758154e-03
H         0.5069333903       0.3709310805       0.8210545742  -1.956282832419e-02  -2.310524623537e-02  -2.106848362539e-02
H         0.5483743589       0.2812411908      -0.7136336241   1.485227625452e-02   2.136320039523e-02  -5.495096266044e-02
4
Properties=species:S:1:pos:R:3:forces:R:3 energy=-5.651797589557e+01 dipole="8.8920427186e-03 3.8649013907e-01 2.1723028473e-02" quadrupole="-4.5444142043e+00 1.4881777836e-02 -2.7585990562e-01 1.4881777836e-02 -7.0716216338e+00 8.9324644903e-02 -2.7585990562e-01 8.9324644903e-02 -4.5451420597e+00" polarizability="1.3006334113e+01 2.9254960243e-02 -3.8284702896e-01 2.9251752318e-02 1.3906255338e+01 -1.8097107476e-02 -3.8284661179e-01 -1.8097213816e-02 1.3113829100e+01" dipole_derivatives="-4.3169679270e-01 1.6413615082e-03 1.6985444200e-02 8.0685721574e-03 -8.0983155850e-01 -6.6727770940e-03 1.5418069048e-02 1.3627357517e-02 -4.1914732673e-01 1.4382930670e-01 6.6544339484e-02 -1.9508385474e-02 7.3935745082e-02 2.7340451431e-01 9.8221677901e-03 1.4083849442e-02 -5.1851603714e-03 1.4323937008e-01 1.2563065977e-01 -3.3674313110e-02 2.9887220187e-04 -4.7240135132e-02 2.5573591436e-01 -6.9701890686e-02 -1.6417283843e-02 -6.0860969633e-02 1.1481254229e-01 1.6223802738e-01 -3.4512448322e-02 2.2247704871e-03 -3.4764480096e-02 2.8068838556e-01 6.6553540373e-02 -1.3085810107e-02 5.2418878030e-02 1.6109629878e-01" charge=0 multiplicity=1 method=b3lyp basis=def2-svpd config_type=nh3 sample_index=4 temperature=500.0 units=atomic
N        -0.0016319216      -0.0389356914      -0.0059258946   1.582395844479e-02  -2.171614360399e-02  -1.524162483437e-02
H        -0.9594471488       0.1743705703       0.0895191966  -2.291117101743e-02   9.053393013122e-03  -1.528528576771e-02
H         0.4373284218       0.2020571504       0.8363392916   2.199639353783e-02   8.074002109834e-03   2.320277846161e-02
H         0.5447932169       0.1645584140      -0.8435220331  -1.490894164557e-02   4.588558260076e-03   7.324272210966e-03
4
Properties=species:S:1:pos:R:3:forces:R:3 energy=-5.651193939690e+01 dipole="3.4703600803e-02 3.5252785023e-01 1.9866825966e-02" quadrupole="-4.1046252395e+00 1.4355498979e-01 -2.1791343964e-01 1.4355498979e-01 -7.2031511604e+00 5.5881305466e-02 -2.1791343964e-01 5.5881305466e-02 -4.9198379866e+00" polarizability="1.4651235158e+01 9.1312675590e-02 -4.6677263348e-01 9.1312530560e-02 1.4257635530e+01 -6.1889399073e-02 -4.6677263733e-01 -6.1889650915e-02 1.3629505674e+01" dipole_derivatives="-4.5381667464e-01 1.5074854336e-02 5.5023274493e-03 -2.9667937499e-03 -7.9687400356e-01 -5.9468708596e-03 -5.4068273407e-05 1.2426592582e-02 -3.7806229621e-01 1.8994183006e-01 5.6266609149e-02 -1.5790308479e-02 5.9232196672e-02 2.8689602332e-01 6.5103393915e-03 1.4038841722e-02 -4.6748496577e-03 1.5324981699e-01 1.1556200917e-01 -3.5516823692e-02 -1.8747690186e-02 -3.1261033560e-02 2.4767014382e-01 -6.9313245246e-02 6.5432351240e-03 -5.4440458474e-02 9.3487685748e-02 1.4831312782e-01 -3.5824645454e-02 2.9033666530e-02 -2.5002840399e-02 2.6230644589e-01 6.8750651569e-02 -2.0527887118e-02 4.6689396913e-02 1.3132637449e-01" charge=0 multiplicity=1 method=b3lyp basis=def2-svpd config_type=nh3 sample_index=5 temperature=500.0 units=atomic
N        -0.0102481162      -0.0368459618      -0.0037528294   1.119919841309e-02  -4.685735011434e-03  -1.730922381427e-02
H        -1.0443952301       0.1332511124       0.0688146157   3.778187319466e-02   4.167977862318e-03  -1.250227641069e-02
H         0.5488698805       0.2012263777       0.7923957936  -7.163929300570e-03   2.988465440758e-03   1.726895962647e-02
H         0.6379162655       0.1774732086      -0.8090672834  -4.181710351423e-02  -2.472327055176e-03   1.254167468386e-02
4
Properties=species:S:1:pos:R:3:forces:R:3 energy=-5.649582915868e+01 dipole="6.0321006593e-03 5.0579953619e-01 -4.8825435334e-02" quadrupole="-4.1195658873e+00 7.5572388191e-02 2.7956665839e-01 7.5572388191e-02 -7.1160467407e+00 -1.4429686066e-01 2.7956665839e-01 -1.4429686066e-01 -5.1347293712e+00" polarizability="1.6974591265e+01 -4.1270770270e-01 2.4469774969e-01 -4.1270630963e-01 1.4709994306e+01 -2.5479382177e-01 2.4469747824e-01 -2.5479380659e-01 1.4085984143e+01" dipole_derivatives="-3.2560355025e-01 2.4248613940e-02 -2.4193981724e-02 -8.4665099367e-02 -5.9300585703e-01 -2.3995035420e-02 -4.2068515831e-02 -1.2050790797e-02 -3.8049932049e-01 1.1495984183e-01 7.9507670797e-02 1.5325528433e-02 1.2338231461e-01 2.0372699071e-01 -3.4994921092e-03 -5.2335362376e-03 7.4295294640e-03 1.7317529678e-01 1.2492473469e-01 -5.6711560860e-02 -4.4443913486e-02 -2.4239936296e-03 2.0962811245e-01 -7.8686286493e-02 3.3442116246e-02 -7.4971038606e-02 1.2795576931e-01 8.5720008063e-02 -4.7045387744e-02 5.3312416963e-02 -3.6291687401e-02 1.7965070700e-01 1.0618010702e-01 1.3858934033e-02 7.9591265614e-02 7.9369281081e-02" charge=0 multiplicity=1 method=b3lyp basis=def2-svpd config_type=nh3 sample_index=6 temperature=500.0 units=atomic
N        -0.0012205168      -0.0583717191       0.0116941823  -5.075395355053e-02   1.460697608275e-02  -4.744583030486e-02
H        -1.1450405849       0.2659003471      -0.1072317205   9.341343647422e-02  -1.386125109200e-02   2.225620161692e-02
H         0.6269324053       0.2355838960       0.7514121275  -2.183248168609e-02   8.235238412975e-03   1.884856903332e-02
H         0.5350664675       0.3095528677      -0.8066634723  -2.082593241393e-02  -8.982440156975e-03   6.341848976109e-03
4
Properties=species:S:1:pos:R:3:forces:R:3 energy=-5.651088724637e+01 dipole="3.9758319097e-03 4.2857067268e-01 3.1807043514e-02" quadrupole="-4.2371286182e+00 5.0585153100e-02 -2.2926206237e-01 5.0585153100e-02 -7.1610957792e+00 9.6936757448e-02 -2.2926206237e-01 9.6936757448e-02 -4.8760961439e+00" polarizability="1.5323141784e+01 -1.8522972518e-01 -2.8507944782e-01 -1.8522882971e-01 1.4362357681e+01 8.1487966521e-02 -2.8507934304e-01 8.1488129089e-02 1.3716226063e+01" dipole_derivatives="-3.7457699637e-01 1.4424444239e-02 1.7923895989e-02 -3.9626359311e-02 -7.1059071069e-01 7.3312751117e-03 2.5500704641e-02 1.0958005491e-02 -3.9692275831e-01 1.4083712135e-01 6.7326310149e-02 -1.5065894463e-02 9.3082831666e-02 2.4252872005e-01 4.8882775958e-03 6.7092063275e-03 -5.3952625690e-03 1.6090624968e-01 1.0089270696e-01 -3.8716599629e-02 -2.7658154455e-02 -3.5076806993e-02 2.2233092457e-01 -8.2801528679e-02 -4.8427990508e-03 -6.7090328408e-02 9.8814509041e-02 1.3284858729e-01 -4.3033661167e-02 2.4799648614e-02 -1.8378303481e-02 2.4572742884e-01 7.0580691093e-02 -2.7365699175e-02 6.1524024764e-02 1.3720100053e-01" charge=0 multiplicity=1 method=b3lyp basis=def2-svpd config_type=nh3 sample_index=7 temperature=500.0 units=atomic
N        -0.0015384695      -0.0463955881      -0.0073872026  -4.153815896882e-02   1.810639337178e-03   1.895639227529e-02
H        -1.0847911490       0.2092679519       0.0812275085   7.031092186137e-02  -7.018608403081e-03  -1.695853909944e-02
H         0.5123896364       0.2410504602       0.8219515883  -7.425131945985e-03   2.429023734286e-05   2.186809278003e-03
H         0.5937775469       0.1943181391      -0.8005387159  -2.134708909390e-02   5.185373944862e-03  -4.183283882418e-03
4
Properties=species:S:1:pos:R:3:forces:R:3 energy=-5.649492906930e+01 dipole="3.3091506487e-02 6.4247725398e-01 3.5275750664e-03" quadrupole="-4.6630846062e+00 1.1598931716e-01 2.0772555096e-01 1.1598931716e-01 -6.6414451109e+00 1.6603445760e-02 2.0772555096e-01 1.6603445760e-02 -4.9290618876e+00" polarizability="1.2530052275e+01 4.4124117995e-01 1.0549916584e+00 4.4124115806e-01 1.3552237647e+01 7.7949002455e-01 1.0549916191e+00 7.7949032755e-01 1.3000485540e+01" dipole_derivatives="-4.3059832240e-01 1.0905315010e-03 4.8738512450e-02 3.4871492266e-02 -5.4866586976e-01 6.5161985436e-02 5.9867398429e-02 -1.7363881101e-02 -3.6642499867e-01 1.3436346504e-01 1.1022864613e-01 6.2043400783e-03 1.1086798794e-01 1.9632824814e-01 -2.0963100895e-02 -3.8777045207e-02 2.1618409867e-03 1.5754524214e-01 1.4871802018e-01 -5.1020213374e-02 -5.4059216102e-02 -7.8186595612e-02 1.6423054495e-01 -1.5029277678e-01 -3.6387879941e-02 -8.0093953464e-02 1.0480447492e-01 1.4751764652e-01 -6.0301018012e-02 -8.8376197786e-04 -6.7553638047e-02 1.8810803767e-01 1.0609325963e-01 1.5300387435e-02 9.5299677401e-02 1.0407414086e-01" charge=0 multiplicity=1 method=b3lyp basis=def2-svpd config_type=nh3 sample_index=8 temperature=500.0 units=atomic
N        -0.0101236904      -0.0692440124      -0.0078545461   6.117192188840e-02  -6.332693611510e-02   1.466668084985e-01
H        -0.8720819956       0.2837568539      -0.0393461146  -9.108411943774e-02   3.653775830532e-02   7.869017884873e-03
H         0.5719333572       0.3639883187       0.8389907546  -4.164747337777e-02  -2.541434846430e-02  -3.649344167570e-02
H         0.4408107386       0.3143553891      -0.6905108249   7.156222660899e-02   5.220650927302e-02  -1.180447816333e-01
4
Properties=species:S:1:pos:R:3:forces:R:3 energy=-5.651797561809e+01 dipole="1.9881149697e-03 6.1403741042e-01 1.8391803092e-02" quadrupole="-4.8845404022e+00 -2.7336387034e-04 -2.5984904730e-01 -2.7336387034e-04 -6.8291581737e+00 8.3809446895e-02 -2.5984904730e-01 8.3809446895e-02 -4.6960276235e+00" polarizability="1.3815788044e+01 2.2554534566e-01 -4.6728402486e-01 2.2554623537e-01 1.4306157710e+01 -6.4611698170e-02 -4.6728496541e-01 -6.4612012830e-02 1.4609662092e+01" dipole_derivatives="-3.6843478294e-01 -6.1883051124e-03 5.0580713274e-05 2.6458360254e-02 -5.0899737292e-01 -2.0562106956e-02 -2.8508746611e-03 1.1543773316e-02 -3.3470757965e-01 8.9417729268e-02 1.0515958065e-01 -1.2147303462e-02 1.1802259388e-01 1.7273381646e-01 1.5877983758e-02 1.8143020057e-02 -5.0596416920e-03 1.4218134837e-01 1.3015161488e-01 -4.8788751965e-02 -1.5618506312e-02 -7.8663533891e-02 1.6284260840e-01 -1.0990431296e-01 -4.1702583945e-02 -9.0504215360e-02 8.1514985881e-02 1.4886472196e-01 -5.0182250293e-02 2.7715135910e-02 -6.5816982547e-02 1.7342626720e-01 1.1458895200e-01 2.6410716718e-02 8.4020607865e-02 1.1100907515e-01" charge=0 multiplicity=1 method=b3lyp basis=def2-svpd config_type=nh3 sample_index=9 temperature=500.0 units=atomic
N        -0.0021220840      -0.0709211839      -0.0040844246   3.702520196335e-02   1.822169967578e-02  -1.066395463435e-02
H        -0.9257348507       0.3207236269       0.0805570560  -1.319408878127e-02   3.836788594012e-03  -1.492560219442e-02
H         0.4242514815       0.3452671845       0.8491179608   5.527458513154e-03  -9.148902752607e-03  -1.575084232858e-02
H         0.5309683474       0.3194129588      -0.8729245906  -2.935940588052e-02  -1.291059963660e-02   4.134047735255e-02
4
Properties=species:S:1:pos:R:3:forces:R:3 energy=-5.651314334831e+01 dipole="5.1991123183e-02 5.8069825646e-01 1.5364356327e-03" quadrupole="-4.4193501893e+00 1.8457154711e-01 -9.2514020138e-02 1.8457154711e-01 -6.7975533632e+00 -8.7895637446e-04 -9.2514020138e-02 -8.7895637446e-04 -5.0515645003e+00" polarizability="1.2983184222e+01 3.9915998140e-01 -4.2552789440e-01 3.9915985256e-01 1.3770376194e+01 -2.5653319472e-01 -4.2552793743e-01 -2.5653338449e-01 1.3016361454e+01" dipole_derivatives="-4.5199548561e-01 3.8983837264e-03 -1.6115663552e-02 2.7511792367e-02 -6.1638319139e-01 -2.1915488362e-02 -2.4536578331e-02 6.2839316228e-03 -3.6216903776e-01 1.5651223693e-01 1.0070677754e-01 -3.9834922609e-03 9.0791587437e-02 2.2605981038e-01 8.2854150145e-03 1.5677853558e-02 -1.4039015985e-03 1.5868160904e-01 1.4658502717e-01 -5.3644516285e-02 -2.5850306425e-02 -5.7007687732e-02 1.9965925352e-01 -1.1512527011e-01 -1.3540615045e-02 -8.2445350108e-02 9.9509651230e-02 1.4889820071e-01 -5.0961500409e-02 4.5949068493e-02 -6.1296123841e-02 1.9066401155e-01 1.2875665292e-01 2.2398122096e-02 7.7568034656e-02 1.0397925259e-01" charge=0 multiplicity=1 method=b3lyp basis=def2-svpd config_type=nh3 sample_index=10 temperature=500.0 units=atomic
N        -0.0140984448      -0.0620412315       0.0023050635   8.312058391790e-02  -2.600637891171e-02  -4.668863876372e-02
H        -0.9184321833       0.2358924347       0.0204898215  -5.896526446059e-02   2.790383042575e-02  -3.179595589982e-03
H         0.5301783460       0.3057842036       0.7257906906   8.331717354026e-03   1.029634501583e-02   4.434156776253e-02
H         0.5841425669       0.3203459629      -0.7783078713  -3.248642100637e-02  -1.219421377883e-02   5.525836503223e-03
4
Properties=species:S:1:pos:R:3:forces:R:3 energy=-5.649391000073e+01 dipole="2.6359380590e-03 7.3234800717e-01 3.4396287626e-02" quadrupole="-5.2278399566e+00 2.3866997556e-02 -4.2498386819e-01 2.3866997556e-02 -6.5011391673e+00 1.6173066719e-01 -4.2498386819e-01 1.6173066719e-01 -4.8369728976e+00" polarizability="1.3416558233e+01 8.7604494499e-01 -5.9194961519e-01 8.7604456557e-01 1.4570923145e+01 -2.5758722090e-02 -5.9194993478e-01 -2.5759152645e-02 1.5667781844e+01" dipole_derivatives="-3.8424577692e-01 -1.7086395553e-02 4.6167387045e-05 7.5291843499e-02 -3.4005524635e-01 -3.1067098353e-02 -1.2010139529e-02 2.0363090501e-02 -2.8236619332e-01 8.7184227705e-02 1.2461551039e-01 -1.4888227866e-02 1.2253246563e-01 1.2461493920e-01 3.2593242008e-02 3.1055850521e-02 -9.7065071666e-03 1.5135073069e-01 1.3903315382e-01 -5.3197716891e-02 -2.3556559152e-02 -1.0893692262e-01 9.9508875989e-02 -1.4695903019e-01 -6.7706055856e-02 -1.0311553076e-01 4.2384090617e-02 1.5802875317e-01 -5.4331648139e-02 3.8399802422e-02 -8.8887277315e-02 1.1592812175e-01 1.4543412120e-01 4.8660419565e-02 9.2458820362e-02 8.8632440572e-02" charge=0 multiplicity=1 method=b3lyp basis=def2-svpd config_type=nh3 sample_index=11 temperature=500.0 units=atomic
N        -0.0089668934      -0.0909760203      -0.0080218749   1.222524913601e-01   2.165764962070e-02  -9.726131916595e-03
H        -0.8034553611       0.3886256965       0.1388881589  -9.623908603181e-02   3.827656744574e-02  -1.619387970904e-02
H         0.3759572465       0.4630982078       0.8469496068   1.381848557962e-02  -3.116460730070e-02  -2.711636435704e-02
H         0.5520872716       0.4123287870      -0.8743790254  -3.983151799367e-02  -2.876958440453e-02   5.303709844961e-02
4
Properties=species:S:1:pos:R:3:forces:R:3 energy=-5.651781097139e+01 dipole="2.0964965254e-02 6.6391408953e-01 -2.1220274417e-02" quadrupole="-4.7783507824e+00 9.0468962035e-02 1.4935082147e-01 9.0468962035e-02 -6.7021274902e+00 -9.9787905816e-02 1.4935082147e-01 -9.9787905816e-02 -4.9989394363e+00" polarizability="1.3967812123e+01 3.9311666004e-01 -1.5652719002e-01 3.9311685393e-01 1.4371595729e+01 -3.5654553620e-01 -1.5652718814e-01 -3.5654543799e-01 1.4429828529e+01" dipole_derivatives="-3.6815700538e-01 2.4088047845e-04 -2.3347599703e-02 2.6625862926e-02 -4.4377758186e-01 -1.9151967862e-02 -2.2432610060e-02 -5.1291398453e-03 -3.1679453151e-01 9.8171342198e-02 1.1037776338e-01 9.2343497521e-03 1.2048475070e-01 1.5806373450e-01 -5.4480682975e-03 -4.1342272090e-04 4.8913617457e-03 1.5323683037e-01 1.4506444858e-01 -5.7869567896e-02 -3.2114474263e-02 -6.3869413056e-02 1.5350737149e-01 -1.1941751671e-01 -2.4413712924e-02 -9.0362007855e-02 9.7676544517e-02 1.2492007779e-01 -5.2750379656e-02 4.6227902028e-02 -8.3241093755e-02 1.3220736996e-01 1.4401593145e-01 4.7259156764e-02 9.0598595320e-02 6.5881879638e-02" charge=0 multiplicity=1 method=b3lyp basis=def2-svpd config_type=nh3 sample_index=12 temperature=500.0 units=atomic
N        -0.0081463131      -0.0788985682       0.0084494191   5.079674053990e-02   2.854987501163e-02  -3.668647873957e-02
H        -0.9227703548       0.3356886078      -0.0633559893  -1.145732642437e-02   5.753444892612e-03   9.948391291239e-03
H         0.5389416108       0.3535584495       0.7817555786  -1.843803019146e-02  -6.911442974042e-03  -4.706306160914e-03
H         0.4970164714       0.4069972843      -0.8357987774  -2.090228541272e-02  -2.739150610228e-02   3.144373919291e-02
4
Properties=species:S:1:pos:R:3:forces:R:3 energy=-5.650290789552e+01 dipole="5.7749960807e-02 4.4282865396e-01 2.7838987084e-02" quadrupole="-4.5025118177e+00 1.4601905895e-01 -2.1949451607e-01 1.4601905895e-01 -6.9785456789e+00 1.1385654727e-01 -2.1949451607e-01 1.1385654727e-01 -4.6859829340e+00" polarizability="1.2397046874e+01 4.0965018616e-01 1.7461553628e-02 4.0964976590e-01 1.3827454418e+01 1.5395600341e-01 1.7461451735e-02 1.5395579655e-01 1.3405181454e+01" dipole_derivatives="-4.9518238441e-01 -2.6018156301e-03 4.0847258611e-02 5.1554628557e-02 -7.7622375139e-01 1.1624962482e-02 3.0214869665e-02 1.7429141466e-02 -3.5717334254e-01 1.7150745409e-01 8.3366271906e-02 -2.3004087802e-02 5.7905843254e-02 2.8703471556e-01 7.2419511789e-03 2.8754277125e-03 -9.8509462624e-03 1.3185767933e-01 1.4223172637e-01 -3.8337019754e-02 -1.8008414211e-02 -6.1686576670e-02 2.2238391731e-01 -9.8298912593e-02 -2.8480861431e-02 -6.4242171712e-02 8.7850596629e-02 1.8144282683e-01 -4.2426285142e-02 1.6645978559e-04 -4.7774490029e-02 2.6680506214e-01 7.9433266491e-02 -4.6132808053e-03 5.6663719182e-02 1.3746479047e-01" charge=0 multiplicity=1 method=b3lyp basis=def2-svpd config_type=nh3 sample_index=13 temperature=500.0 units=atomic
N        -0.0144911847      -0.0450689058      -0.0095461981   1.834921274407e-01  -3.465024591888e-02   2.226826960638e-02
H        -0.8797789228       0.1558453750       0.0868939863  -1.496509247700e-01   4.155757467918e-02  -1.617702417830e-03
H         0.5036211764       0.2653700426       0.8459092874  -1.320532908313e-02  -9.789379785326e-03  -1.912216374637e-02
H         0.5775033420       0.2049877463      -0.8001650530  -2.063658386112e-02   2.880877936081e-03  -1.527143161245e-03
4
Properties=species:S:1:pos:R:3:forces:R:3 energy=-5.649349261886e+01 dipole="-1.6915501631e-02 8.2424834276e-01 3.2961420337e-02" quadrupole="-5.3553285639e+00 -5.5388588926e-02 -1.5279778257e-01 -5.5388588926e-02 -6.1128145149e+00 1.7694947092e-01 -1.5279778257e-01 1.7694947092e-01 -5.1827900401e+00" polarizability="1.3641156957e+01 -1.5066218111e-01 7.0356491368e-01 -1.5066204618e-01 1.4347463610e+01 1.1624253414e+00 7.0356500749e-01 1.1624256355e+00 1.3708749921e+01" dipole_derivatives="-3.3725113190e-01 1.9113410524e-03 3.8672325334e-02 -1.5201826414e-02 -2.3408275012e-01 7.1084760888e-02 3.5611945989e-02 -2.1444589166e-03 -3.4547399629e-01 4.8348763820e-02 1.1395067580e-01 -1.6409594537e-03 1.9711408788e-01 7.9929031621e-02 1.1330880089e-03 -8.5481273076e-03 -3.6366042232e-03 1.7488836734e-01 1.3263021842e-01 -5.4198219284e-02 -6.4679458794e-02 -1.1092816238e-01 6.6876264857e-02 -1.8781681203e-01 -6.3625695471e-02 -9.7944392992e-02 6.0870621702e-02 1.5626867604e-01 -6.1663023065e-02 2.7646731568e-02 -7.0983576146e-02 8.7277873214e-02 1.1559526010e-01 3.6561206378e-02 1.0372367217e-01 1.0971674421e-01" charge=0 multiplicity=1 method=b3lyp basis=def2-svpd config_type=nh3 sample_index=14 temperature=500.0 units=atomic
N         0.0038135514      -0.1052112508      -0.0172884403  -4.342715469798e-02   2.448768599098e-02   1.292624412274e-01
H        -0.8468706213       0.5012074000       0.0862964279  -1.093601837113e-02  -2.525858122459e-02  -1.250029228387e-02
H         0.3915677402       0.5349783351       0.8225156886   6.203689205992e-04  -4.649020473219e-02  -2.631218497709e-02
H         0.4023160624       0.4256562349      -0.6686004716   5.373868085983e-02   4.726228308435e-02  -9.044941922328e-02
4
Properties=species:S:1:pos:R:3:forces:R:3 energy=-5.651377880930e+01 dipole="-2.7335177719e-02 6.4961007680e-01 -4.1064514520e-03" quadrupole="-5.1339091814e+00 -1.0403796020e-01 1.6113570606e-01 -1.0403796020e-01 -6.7735579376e+00 -2.1038554883e-02 1.6113570606e-01 -2.1038554883e-02 -4.6022718088e+00" polarizability="1.4369955161e+01 -2.9105444132e-02 5.5247457824e-01 -2.9105702223e-02 1.4623905246e+01 2.8163066131e-01 5.5247469409e-01 2.8163176824e-01 1.5235995109e+01" dipole_derivatives="-3.2431054628e-01 -1.1696290736e-02 1.9864461153e-02 9.1913754694e-03 -4.3520200321e-01 3.4730086480e-02 1.6310759284e-02 -9.2724407570e-03 -3.2758989294e-01 4.9193761997e-02 1.0862699336e-01 3.5017810522e-03 1.4524339867e-01 1.3846590551e-01 -1.0808277182e-02 -1.7402709862e-02 2.2094289560e-03 1.3865928171e-01 1.4023708324e-01 -4.8209178262e-02 -3.1660709186e-02 -7.5935573611e-02 1.4701301830e-01 -1.2229461570e-01 -4.4013312033e-02 -9.1661894254e-02 9.7602266826e-02 1.3488054919e-01 -4.8718100636e-02 8.2983247708e-03 -7.8499224422e-02 1.4972064178e-01 9.8372260942e-02 4.5105104116e-02 9.8726966157e-02 9.1330329452e-02" charge=0 multiplicity=1 method=b3lyp basis=def2-svpd config_type=nh3 sample_index=15 temperature=500.0 units=atomic
N         0.0060093787      -0.0787475341      -0.0012688130  -6.879187823507e-03   3.985927450576e-02   3.180629490435e-02
H        -0.9370401494       0.3866468755      -0.0400075850   1.396429960398e-02  -1.516514537695e-02   9.498044791004e-03
H         0.4664949020       0.3577508217       0.9224059665  -1.949369020465e-02  -1.994540344425e-02  -5.744837762773e-02
H         0.3870488351       0.3497481239      -0.8647690492   1.240749415255e-02  -4.747350159851e-03   1.614546900043e-02
4
Properties=species:S:1:pos:R:3:forces:R:3 energy=-5.650693922937e+01 dipole="-5.1017338361e-02 5.9197135277e-01 -3.2091097006e-02" quadrupole="-5.0249382944e+00 -1.9625960628e-01 4.3064277180e-02 -1.9625960628e-01 -6.8126679684e+00 -8.5169818644e-02 4.3064277180e-02 -8.5169818644e-02 -4.4948209169e+00" polarizability="1.3936053125e+01 -6.2885252624e-01 -3.5620410470e-01 -6.2885267116e-01 1.4029575117e+01 -4.1295222781e-01 -3.5620408096e-01 -4.1295268031e-01 1.3149144814e+01" dipole_derivatives="-3.2859421176e-01 -9.1688061296e-03 -4.0909772876e-02 -4.4723914571e-02 -5.7978424617e-01 -4.2664992091e-02 -3.4927556146e-02 1.1706267588e-02 -4.4907649092e-01 4.7058783894e-02 9.4481009607e-02 6.1938932239e-03 1.5801056872e-01 1.6178631047e-01 8.1710621809e-04 1.0913612256e-02 6.9947203944e-04 1.5241382920e-01 1.3927848003e-01 -4.5292517170e-02 6.1562625630e-03 -4.7909966503e-02 2.1645775010e-01 -6.4985749210e-02 -1.2481137556e-02 -9.7709259321e-02 1.5510854430e-01 1.4225623967e-01 -4.0019248856e-02 2.8560314606e-02 -6.5375268180e-02 2.0153778552e-01 1.0683517798e-01 3.6493002805e-02 8.5306411686e-02 1.4155517819e-01" charge=0 multiplicity=1 method=b3lyp basis=def2-svpd config_type=nh3 sample_index=16 temperature=500.0 units=atomic
N         0.0175233619      -0.0653777019       0.0086345425  -1.067592085607e-01  -1.587567115346e-02  -1.162922786782e-01
H        -0.9834009644       0.3667475087      -0.0330999121   3.832849186396e-02  -2.442672840663e-02   6.484463346727e-03
H         0.3639899504       0.2435188017       0.8051990299   5.601020477618e-02   4.316597712008e-02   8.671667043371e-02
H         0.3759352863       0.2981143795      -0.8920704750   1.241985478904e-02  -2.862574860680e-03   2.309039405492e-02
4