2
Properties=species:S:1:pos:R:3:forces:R:3 energy=-7.575154031287e+01 dipole="-1.2105314503e-10 -1.5480583118e-09 -4.8196097411e-01" quadrupole="-8.0506935423e+00 -4.3520429173e-10 6.3696742414e-10 -4.3520429173e-10 -8.0506935411e+00 5.9751086972e-09 6.3696742414e-10 5.9751086972e-09 -6.1160982765e+00" polarizability="2.1066346233e+01 4.4603755390e-10 -9.5157762185e-10 4.4650730695e-10 2.1066346231e+01 -9.1975338123e-09 3.0780449183e-07 -1.7104533802e-08 1.8098837673e+01" dipole_derivatives="-1.2134996905e+00 -2.6666216101e-11 1.7387718159e-10 8.0468107668e-12 -1.2134996913e+00 1.5255303136e-09 -1.0611317380e-08 -2.5718457919e-07 -7.2246089466e-01 2.1350056563e-01 -3.3458010746e-12 -1.5836219937e-10 3.4439975363e-12 2.1350056647e-01 -1.5281244865e-09 1.0622197566e-08 2.5718382979e-07 -2.7753900738e-01" charge=-1 multiplicity=1 method=b3lyp basis=def2-svpd config_type=oh- sample_index=0 temperature=500.0 units=atomic
O         0.0000000000       0.0000000002       0.0554181819   1.138439136412e-11   1.098664483105e-10   3.542022806417e-02
H        -0.0000000003      -0.0000000027      -0.8795267621  -1.136568584088e-11  -1.098663819573e-10  -3.542034965000e-02
2
Properties=species:S:1:pos:R:3:forces:R:3 energy=-7.575228751916e+01 dipole="7.0650600099e-11 7.5417038740e-10 -4.5879044003e-01" quadrupole="-8.0905907749e+00 -1.0066709274e-14 -4.0265677651e-10 -1.0066709274e-14 -8.0905907749e+00 -3.1345974408e-09 -4.0265677651e-10 -3.1345974408e-09 -6.1559455017e+00" polarizability="2.1061280543e+01 5.0001715341e-14 3.6003927635e-10 6.5650433254e-14 2.1061280543e+01 2.8809239700e-09 -3.3200969442e-07 1.5595411647e-08 1.9283083448e+01" dipole_derivatives="-1.1869169982e+00 3.8100238555e-12 -9.6831898925e-11 2.3021112212e-11 -1.1869169978e+00 -8.3887149561e-10 -1.2721609877e-07 3.7826158872e-08 -6.7951527710e-01 1.8691832357e-01 -5.1578397551e-13 1.0292508803e-10 2.8975803504e-13 1.8691832315e-01 8.2296617522e-10 1.2719350573e-07 -3.7812586395e-08 -3.2048498848e-01" charge=-1 multiplicity=1 method=b3lyp basis=def2-svpd config_type=oh- sample_index=1 temperature=500.0 units=atomic
O        -0.0000000000      -0.0000000001       0.0584502238   3.394576873585e-12   2.723867651333e-11  -1.678291351821e-02
H         0.0000000002       0.0000000015      -0.9276474674  -3.403891471288e-12  -2.723069852005e-11   1.678267025358e-02
2
Properties=species:S:1:pos:R:3:forces:R:3 energy=-7.575062339683e+01 dipole="1.6182503061e-10 1.9910140319e-09 -4.4294485105e-01" quadrupole="-8.1121813432e+00 -1.2476068581e-14 -9.7342890057e-10 -1.2476068581e-14 -8.1121813432e+00 -8.3151305976e-09 -9.7342890057e-10 -8.3151305976e-09 -6.1832413766e+00" polarizability="2.1047672884e+01 5.3041614428e-14 5.0512596051e-10 6.6294566672e-14 2.1047672884e+01 4.4460916683e-09 -1.0488410888e-06 8.4299913824e-09 2.0017496619e+01" dipole_derivatives="-1.1712609341e+00 -1.1756757282e-12 -2.2920154804e-10 1.3335215168e-11 -1.1712609336e+00 -2.2112865705e-09 -2.4595639414e-07 -4.9518167344e-08 -6.5391464991e-01 1.7126214489e-01 -3.9989301004e-13 2.5511831677e-10 4.6434748127e-13 1.7126214435e-01 2.2301566756e-09 2.4597274217e-07 4.9536458269e-08 -3.4608572433e-01" charge=-1 multiplicity=1 method=b3lyp basis=def2-svpd config_type=oh- sample_index=2 temperature=500.0 units=atomic
O        -0.0000000000      -0.0000000003       0.0602640706   1.963053216691e-11   1.726589149108e-10  -3.989622587816e-02
H         0.0000000005       0.0000000041      -0.9564345329  -1.962013423439e-11  -1.726591508332e-10   3.989600563461e-02
2
Properties=species:S:1:pos:R:3:forces:R:3 energy=-7.573806122770e+01 dipole="-7.1890438732e-10 -5.8069145137e-09 -5.0921325702e-01" quadrupole="-7.9814107662e+00 -1.7143737685e-10 2.4246229527e-09 -1.7143737685e-10 -7.9814107758e+00 2.1651948470e-08 2.4246229527e-09 2.1651948470e-08 -6.0649990926e+00" polarizability="2.1024639812e+01 7.0250261719e-10 -5.9119269931e-09 7.0274284732e-10 2.1024639852e+01 -5.2132121555e-08 4.9999608823e-07 -5.4731958387e-08 1.6413886981e+01" dipole_derivatives="-1.2549188963e+00 7.6919647633e-12 6.2326932487e-10 -1.4969317374e-12 -1.2549189007e+00 5.3234242266e-09 -2.9817076586e-07 -1.9339829738e-07 -7.8543632366e-01 2.5491781434e-01 -1.1518764768e-11 -6.0397594721e-10 1.1092197097e-11 2.5491781882e-01 -5.3105699255e-09 2.9817426306e-07 1.9340135049e-07 -2.1456311888e-01" charge=-1 multiplicity=1 method=b3lyp basis=def2-svpd config_type=oh- sample_index=3 temperature=500.0 units=atomic
O         0.0000000001       0.0000000006       0.0508330952   2.052566134508e-10   1.809846343352e-09   1.600107417072e-01
H        -0.0000000010      -0.0000000091      -0.8067581086  -2.052373788369e-10  -1.809832714822e-09  -1.600099368461e-01
2
Properties=species:S:1:pos:R:3:forces:R:3 energy=-7.575250324501e+01 dipole="-3.8076985860e-11 -5.3165269673e-10 -4.7204942555e-01" quadrupole="-8.0692348703e+00 -5.6423678934e-11 2.0738215540e-10 -5.6423678934e-11 -8.0692348721e+00 1.7772284200e-09 2.0738215540e-10 1.7772284200e-09 -6.1332373257e+00" polarizability="2.1067006643e+01 7.0339552416e-11 -2.5466978496e-10 7.0358003936e-11 2.1067006645e+01 -2.2919713600e-09 1.2843998390e-07 1.0799771203e-06 1.8624887390e+01" dipole_derivatives="-1.2014713615e+00 -1.7502170473e-11 4.6681439812e-11 1.5358839752e-11 -1.2014713588e+00 4.7735757440e-10 -1.6928125568e-10 7.7150841271e-08 -7.0317021920e-01 2.0147254289e-01 -8.4941496778e-13 -5.1796814082e-11 1.1605281991e-12 2.0147254024e-01 -4.6897051166e-10 1.6983636719e-10 -7.7140155375e-08 -2.9682988973e-01" charge=-1 multiplicity=1 method=b3lyp basis=def2-svpd config_type=oh- sample_index=4 temperature=500.0 units=atomic
O         0.0000000000       0.0000000001       0.0567824427   9.884880549838e-13   8.972666572796e-12   9.560242044434e-03
H        -0.0000000001      -0.0000000008      -0.9011785721  -9.980602591241e-13  -8.981919587843e-12  -9.560559879303e-03
2
Properties=species:S:1:pos:R:3:forces:R:3 energy=-7.574964199670e+01 dipole="1.8735854147e-10 2.2532187188e-09 -4.3640361013e-01" quadrupole="-8.1200967446e+00 -4.2591586249e-14 -1.1524977836e-09 -4.2591586249e-14 -8.1200967446e+00 -1.0125246634e-08 -1.1524977836e-09 -1.0125246634e-08 -6.1946459611e+00" polarizability="2.1040531064e+01 3.3560681870e-13 4.2581428170e-10 3.4825114612e-13 2.1040531064e+01 3.8337446799e-09 -1.3559315493e-06 6.8014464520e-09 2.0307383471e+01" dipole_derivatives="-1.1652366110e+00 4.3384405186e-12 -2.9158051613e-10 5.9322237225e-12 -1.1652366097e+00 -2.6922692617e-09 5.1769838416e-08 1.3848680536e-07 -6.4407308669e-01 1.6523772045e-01 -3.0346756573e-13 3.0078579353e-10 3.2015331770e-13 1.6523771914e-01 2.7066233804e-09 -5.1776513632e-08 -1.3848566738e-07 -3.5592730077e-01" charge=-1 multiplicity=1 method=b3lyp basis=def2-svpd config_type=oh- sample_index=5 temperature=500.0 units=atomic
O        -0.0000000000      -0.0000000003       0.0609674003   2.774799859904e-11   2.494886069388e-10  -4.752347051268e-02
H         0.0000000006       0.0000000051      -0.9675968861  -2.772215063098e-11  -2.494996945209e-10   4.752336298758e-02
2
Properties=species:S:1:pos:R:3:forces:R:3 energy=-7.575086889944e+01 dipole="1.3075357479e-10 1.6854678265e-09 -4.4475253430e-01" quadrupole="-8.1098993788e+00 -2.3699268213e-14 -7.8166554953e-10 -2.3699268213e-14 -8.1098993788e+00 -7.6486785481e-09 -7.8166554953e-10 -7.6486785481e-09 -6.1801063703e+00" polarizability="2.1049509650e+01 2.6382783747e-14 4.3824725822e-10 3.0620364273e-14 2.1049509650e+01 4.3836805105e-09 -8.2898995159e-07 8.8749931609e-09 1.9936125122e+01" dipole_derivatives="-1.1729672672e+00 1.3674934994e-11 -1.8088399802e-10 -4.4523821402e-12 -1.1729672778e+00 -2.0330429429e-09 2.1371909797e-07 -1.8610640806e-08 -6.5670465514e-01 1.7296849830e-01 -3.2290730953e-13 2.0420856366e-10 5.0035684091e-13 1.7296850889e-01 2.0369939589e-09 -2.1371687753e-07 1.8610307739e-08 -3.4329571423e-01" charge=-1 multiplicity=1 method=b3lyp basis=def2-svpd config_type=oh- sample_index=6 temperature=500.0 units=atomic
O        -0.0000000000      -0.0000000002       0.0600653995   1.486982101205e-11   1.484773018598e-10  -3.761435239897e-02
H         0.0000000004       0.0000000038      -0.9532814784  -1.484725961992e-11  -1.484745430425e-10   3.761411373592e-02
2
Properties=species:S:1:pos:R:3:forces:R:3 energy=-7.574901346570e+01 dipole="1.8352742315e-10 2.5910127252e-09 -4.3260568984e-01" quadrupole="-8.1244621533e+00 -7.1962329693e-14 -1.1436669427e-09 -7.1962329693e-14 -8.1244621533e+00 -1.1109430858e-08 -1.1436669427e-09 -1.1109430858e-08 -6.2013154547e+00" polarizability="2.1036065805e+01 4.9686605810e-13 3.2502268646e-10 5.0699749934e-13 2.1036065805e+01 3.2483104039e-09 -1.4284293292e-06 5.7499294081e-09 2.0472620381e+01" dipole_derivatives="-1.1618399287e+00 -2.0158707845e-11 -2.7251259435e-10 1.3302874911e-11 -1.1618399243e+00 -3.0259295512e-09 3.4017433315e-07 -4.4814735256e-08 -6.3853502023e-01 1.6184095839e-01 -1.7503179283e-13 3.0213653989e-10 3.4788093420e-13 1.6184095400e-01 3.0199253517e-09 -3.4017140493e-07 4.4815803846e-08 -3.6146537267e-01" charge=-1 multiplicity=1 method=b3lyp basis=def2-svpd config_type=oh- sample_index=7 temperature=500.0 units=atomic
O        -0.0000000000      -0.0000000004       0.0613652779   2.985578115238e-11   2.987126349270e-10  -5.154089063940e-02
H         0.0000000006       0.0000000056      -0.9739114913  -2.987096865980e-11  -2.987083268615e-10   5.154086468159e-02
2
Properties=species:S:1:pos:R:3:forces:R:3 energy=-7.574301353110e+01 dipole="-6.0542092711e-10 -4.6929279458e-09 -5.0352647551e-01" quadrupole="-7.9989495855e+00 -9.3256653491e-11 1.9303999817e-09 -9.3256653491e-11 -7.9989495864e+00 1.7754326622e-08 1.9303999817e-09 1.7754326622e-08 -6.0765869262e+00" polarizability="2.1040460292e+01 1.7631881198e-10 -4.3486979796e-09 1.7642053633e-10 2.1040460293e+01 -3.9139756838e-08 5.0091092982e-07 -4.2192203331e-08 1.6805278113e+01" dipole_derivatives="-1.2448463192e+00 3.0820432317e-11 4.6361978178e-10 8.0340371489e-13 -1.2448463215e+00 4.3936439412e-09 1.4532219872e-07 2.0507617826e-07 -7.7075332206e-01 2.4484576805e-01 -1.1570772417e-11 -4.8711650284e-10 1.1705005559e-11 2.4484577032e-01 -4.3836066143e-09 -1.4532475223e-07 -2.0509810517e-07 -2.2924616038e-01" charge=-1 multiplicity=1 method=b3lyp basis=def2-svpd config_type=oh- sample_index=8 temperature=500.0 units=atomic
O         0.0000000001       0.0000000005       0.0519301983   1.273002177235e-10   1.145723114692e-09   1.239238134874e-01
H        -0.0000000008      -0.0000000076      -0.8241699315  -1.273035787503e-10  -1.145733946305e-09  -1.239232363224e-01
2
Properties=species:S:1:pos:R:3:forces:R:3 energy=-7.575190454210e+01 dipole="-7.9493056179e-11 -1.1031739134e-09 -4.7943069000e-01" quadrupole="-8.0556725543e+00 -2.3413379018e-10 4.2203994238e-10 -2.3413379018e-10 -8.0556725528e+00 4.7628393001e-09 4.2203994238e-10 4.7628393001e-09 -6.1205023297e+00" polarizability="2.1067009506e+01 2.5125460752e-10 -6.0120394809e-10 2.5151274285e-10 2.1067009505e+01 -6.9130981460e-09 2.1821683147e-07 -1.6783609157e-08 1.8236363434e+01" dipole_derivatives="-1.2103189239e+00 -2.0524223009e-11 1.1180737011e-10 3.4716818782e-11 -1.2103189183e+00 1.1961110575e-09 1.3516951447e-07 2.5472571274e-07 -7.1738977944e-01 2.1031989178e-01 -2.8095663012e-13 -1.0511371533e-10 4.1464922030e-13 2.1031988624e-01 -1.2074883910e-09 -1.3515918940e-07 -2.5470511811e-07 -2.8261017703e-01" charge=-1 multiplicity=1 method=b3lyp basis=def2-svpd config_type=oh- sample_index=9 temperature=500.0 units=atomic
O         0.0000000000       0.0000000001       0.0557776614   5.987772270067e-12   6.890629122895e-11   2.819259790226e-02
H        -0.0000000002      -0.0000000022      -0.8852319637  -5.991999791176e-12  -6.890778482589e-11  -2.819279394410e-02
2
Properties=species:S:1:pos:R:3:forces:R:3 energy=-7.574814079070e+01 dipole="2.0837979027e-10 2.7504482866e-09 -4.2766383194e-01" quadrupole="-8.1299084218e+00 -5.1496064379e-14 -1.3209851948e-09 -5.1496064379e-14 -8.1299084218e+00 -1.2320597466e-08 -1.3209851948e-09 -1.2320597466e-08 -6.2100517091e+00" polarizability="2.1029951306e+01 3.1798714169e-13 2.2950613085e-10 3.3138417898e-13 2.1029951306e+01 2.1980693901e-09 -1.7243404474e-06 4.2294294393e-09 2.0684500876e+01" dipole_derivatives="-1.1575228952e+00 -8.1541886752e-12 -3.5998388521e-10 -5.4327528734e-12 -1.1575228951e+00 -3.3842695835e-09 2.6753474436e-07 3.8142500269e-07 -6.3151236390e-01 1.5752380677e-01 -2.2392432439e-13 3.5177128415e-10 6.2106359335e-13 1.5752380674e-01 3.3679399536e-09 -2.6752541848e-07 -3.8142253245e-07 -3.6848802784e-01" charge=-1 multiplicity=1 method=b3lyp basis=def2-svpd config_type=oh- sample_index=10 temperature=500.0 units=atomic
O        -0.0000000000      -0.0000000004       0.0618723570   3.779741372758e-11   3.618044059809e-10  -5.636694010196e-02
H         0.0000000007       0.0000000063      -0.9819592048  -3.779964209170e-11  -3.618014322494e-10   5.636700880152e-02
2
Properties=species:S:1:pos:R:3:forces:R:3 energy=-7.574575263941e+01 dipole="4.6723885551e-10 3.3099818072e-09 -4.1536655619e-01" quadrupole="-8.1424234950e+00 -2.4508839659e-14 -1.7628886859e-09 -2.4508839659e-14 -8.1424234950e+00 -1.5259359487e-08 -1.7628886859e-09 -1.5259359487e-08 -6.2321024734e+00" polarizability="2.1013502751e+01 2.0564678694e-13 -1.7627220475e-10 2.0791478041e-13 2.1013502751e+01 -1.4973487851e-09 1.5781272740e-08 -4.1339674272e-10 2.1197873077e+01" dipole_derivatives="-1.1472354134e+00 1.1518064142e-12 -5.0830870346e-10 1.1788148148e-11 -1.1472354111e+00 -4.2453559829e-09 2.2236532060e-08 1.4478465649e-07 -6.1487399991e-01 1.4723603488e-01 -4.1354711733e-13 4.9958331060e-10 3.6634001157e-13 1.4723603256e-01 4.2461652081e-09 -2.2242971354e-08 -1.4479797916e-07 -3.8512632952e-01" charge=-1 multiplicity=1 method=b3lyp basis=def2-svpd config_type=oh- sample_index=11 temperature=500.0 units=atomic
O        -0.0000000001      -0.0000000005       0.0630870766   6.266553472171e-11   5.325713462153e-10  -6.668486901603e-02
H         0.0000000009       0.0000000080      -1.0012376873  -6.265437130337e-11  -5.325659487897e-10   6.668505891868e-02
2
Properties=species:S:1:pos:R:3:forces:R:3 energy=-7.575219725419e+01 dipole="7.0139263389e-11 8.5523343409e-10 -4.5746777950e-01" quadrupole="-8.0925411076e+00 -1.5523723677e-14 -4.0152681784e-10 -1.5523723677e-14 -8.0925411076e+00 -3.7279037693e-09 -4.0152681784e-10 -3.7279037693e-09 -6.1582116889e+00" polarizability="2.1060387244e+01 -5.1670246381e-15 3.4637913307e-10 2.7088177712e-15 2.1060387244e+01 3.2886485979e-09 -3.4010102711e-07 1.3893989858e-08 1.9346356040e+01" dipole_derivatives="-1.1855448936e+00 -3.3963957410e-12 -8.7904349949e-11 2.5284863593e-11 -1.1855448974e+00 -9.7616780418e-10 -5.0960208275e-08 1.4958717598e-07 -6.7727454663e-01 1.8554621556e-01 -5.3256277398e-13 1.0311825070e-10 8.7303168948e-13 1.8554621935e-01 9.7597163905e-10 5.0992904344e-08 -1.4957418637e-07 -3.2272573318e-01" charge=-1 multiplicity=1 method=b3lyp basis=def2-svpd config_type=oh- sample_index=12 temperature=500.0 units=atomic
O        -0.0000000000      -0.0000000001       0.0586083825   3.844719731698e-12   3.653129554665e-11  -1.901295880436e-02
H         0.0000000002       0.0000000018      -0.9301575617  -3.846194103503e-12  -3.653533738552e-11   1.901271601217e-02
2
Properties=species:S:1:pos:R:3:forces:R:3 energy=-7.575231435147e+01 dipole="7.0815841872e-11 7.5551812405e-10 -4.5921674007e-01" quadrupole="-8.0899558145e+00 -1.4248177915e-14 -4.0303632129e-10 -1.4248177915e-14 -8.0899558145e+00 -3.1375276021e-09 -4.0303632129e-10 -3.1375276021e-09 -6.1552153610e+00" polarizability="2.1061557526e+01 1.5540229898e-13 3.6462683577e-10 1.5523649594e-13 2.1061557526e+01 2.9174374523e-09 -3.2941029983e-07 1.5662070860e-08 1.9262605955e+01" dipole_derivatives="-1.1873620456e+00 -1.8335184315e-11 -7.8718675007e-11 1.7929355081e-11 -1.1873620466e+00 -8.3337273160e-10 1.7275431086e-08 2.9385871514e-07 -6.8024171811e-01 1.8736337153e-01 -6.1350434699e-13 1.0295866096e-10 4.3811390180e-13 1.8736337257e-01 8.2287629257e-10 -1.7277956843e-08 -2.9385607836e-07 -3.1975854285e-01" charge=-1 multiplicity=1 method=b3lyp basis=def2-svpd config_type=oh- sample_index=13 temperature=500.0 units=atomic
O        -0.0000000000      -0.0000000001       0.0583989584   3.253154538542e-12   2.608343117199e-11  -1.605067229223e-02
H         0.0000000002       0.0000000015      -0.9268338491  -3.258507747937e-12  -2.606563680919e-11   1.605042833825e-02
2
Properties=species:S:1:pos:R:3:forces:R:3 energy=-7.575246229631e+01 dipole="-3.8277902248e-11 -6.0999140881e-10 -4.7296196952e-01" quadrupole="-8.0676301801e+00 1.5375932022e-10 2.0783372300e-10 1.5375932022e-10 -8.0676301784e+00 2.1966400804e-09 2.0783372300e-10 2.1966400804e-09 -6.1316694993e+00" polarizability="2.1067148790e+01 -1.8814692194e-10 -2.6025627543e-10 -1.8822101627e-10 2.1067148788e+01 -2.8616362430e-09 1.2597888542e-07 1.2568670596e-06 1.8577803509e+01" dipole_derivatives="-1.2025329873e+00 -2.3560905013e-11 4.5208598838e-11 1.0850142800e-11 -1.2025329900e+00 5.6767461262e-10 -1.0794909411e-07 -1.0768819170e-07 -7.0488428649e-01 2.0253414631e-01 -1.0424676295e-12 -5.1881498787e-11 7.5677896105e-13 2.0253414911e-01 -5.7364020827e-10 1.0795886407e-07 1.0767550740e-07 -2.9511580672e-01" charge=-1 multiplicity=1 method=b3lyp basis=def2-svpd config_type=oh- sample_index=14 temperature=500.0 units=atomic
O         0.0000000000       0.0000000001       0.0566615062   1.192786030888e-12   1.341534417174e-11   1.168582269140e-02
H        -0.0000000001      -0.0000000010      -0.8992592209  -1.222626992303e-12  -1.344745654244e-11  -1.168613630306e-02
2
Properties=species:S:1:pos:R:3:forces:R:3 energy=-7.575258050458e+01 dipole="-1.9077862950e-14 -1.1229400008e-10 -4.6905837371e-01" quadrupole="-8.0743634737e+00 3.2188091365e-10 2.8046864832e-15 3.2188091365e-10 -8.0743634755e+00 6.1792682761e-10 2.8046864832e-15 6.1792682761e-10 -6.1383679681e+00" polarizability="2.1066289440e+01 -4.2713493186e-10 8.0662818856e-15 -4.2715211254e-10 2.1066289442e+01 -7.1123751124e-10 -2.1046238796e-11 4.0667821538e-07 1.8777483210e+01" dipole_derivatives="-1.1980500024e+00 -2.3517397695e-11 -2.2278544223e-11 1.7870921131e-11 -1.1980500027e+00 1.6564572483e-10 3.8665293189e-08 -4.7589737706e-08 -6.9763375677e-01 1.9805124741e-01 -1.4769996440e-13 2.2865855688e-13 -2.8646293701e-13 1.9805124769e-01 -1.5514599689e-10 -3.8666042590e-08 4.7575471340e-08 -3.0236639600e-01" charge=-1 multiplicity=1 method=b3lyp basis=def2-svpd config_type=oh- sample_index=15 temperature=500.0 units=atomic
O         0.0000000000       0.0000000000       0.0571728575   2.647087911596e-14   8.759269071599e-13   2.906185365311e-03
H        -0.0000000000      -0.0000000003      -0.9073747373   7.869240472708e-16  -9.036236416493e-13  -2.906498094284e-03
2
Properties=species:S:1:pos:R:3:forces:R:3 energy=-7.575144745164e+01 dipole="-1.2143929572e-10 -1.5924316690e-09 -4.8251862952e-01" quadrupole="-8.0495714528e+00 -7.3780932068e-10 6.3781512147e-10 -7.3780932068e-10 -8.0495714527e+00 6.1959433934e-09 6.3781512147e-10 6.1959433934e-09 -6.1151240687e+00" polarizability="2.1066148988e+01 7.4981187722e-10 -9.6249899490e-10 7.5064423791e-10 2.1066148988e+01 -9.6264021586e-09 3.0383698460e-07 -1.7287762264e-08 1.8068203037e+01" dipole_derivatives="-1.2142118390e+00 1.4868810189e-12 1.3541872193e-10 2.1498660792e-11 -1.2142118418e+00 1.5761570112e-09 -9.8425073647e-08 -2.6622676286e-08 -7.2359308883e-01 2.1421269179e-01 -2.4867011794e-12 -1.5814415653e-10 2.7128062510e-12 2.1421269459e-01 -1.5815543120e-09 9.8418440064e-08 2.6618762750e-08 -2.7640680203e-01" charge=-1 multiplicity=1 method=b3lyp basis=def2-svpd config_type=oh- sample_index=16 temperature=500.0 units=atomic
O         0.0000000000       0.0000000002       0.0553378268   1.195412475228e-11   1.191568847876e-10   3.707843742373e-02
H        -0.0000000003      -0.0000000028      -0.8782514684  -1.191555892206e-11  -1.191480629598e-10  -3.707854235135e-02
2
Properties=species:S:1:pos:R:3:forces:R:3 energy=-7.575251621767e+01 dipole="-3.7995049890e-11 -2.6601296073e-10 -4.7171309039e-01" quadrupole="-8.0698214978e+00 2.9436551957e-10 2.0721428953e-10 2.9436551957e-10 -8.0698214961e+00 1.4505607505e-09 2.0721428953e-10 1.4505607505e-09 -6.1338148410e+00" polarizability="2.1066944966e+01 -3.6977213157e-10 -2.5260423212e-10 -3.6983295024e-10 2.1066944964e+01 -1.7687289851e-09 1.2935120890e-07 8.6839757505e-07 1.8642177500e+01" dipole_derivatives="-1.2010822179e+00 -4.6402324158e-11 5.9184509865e-11 3.2169487954e-11 -1.2010822149e+00 3.6745296974e-10 1.4294779249e-07 -9.0850160728e-08 -7.0254159351e-01 2.0108340722e-01 -6.0811050599e-13 -5.2065075348e-11 5.2702618862e-13 2.0108340422e-01 -3.6469342898e-10 -1.4294562756e-07 9.0856211443e-08 -2.9745852094e-01" charge=-1 multiplicity=1 method=b3lyp basis=def2-svpd config_type=oh- sample_index=17 temperature=500.0 units=atomic
O         0.0000000000       0.0000000000       0.0568267966   9.401275771851e-13   6.385866113156e-12   8.788406966827e-03
H        -0.0000000001      -0.0000000007      -0.9018825006  -9.165839101687e-13  -6.417273281698e-12  -8.788725603737e-03
2
Properties=species:S:1:pos:R:3:forces:R:3 energy=-7.575240318296e+01 dipole="3.5720858351e-11 6.5334397468e-10 -4.6078470616e-01" quadrupole="-8.0875931192e+00 -4.2770886160e-14 -2.0219783148e-10 -4.2770886160e-14 -8.0875931192e+00 -2.5416523874e-09 -2.0219783148e-10 -2.5416523874e-09 -6.1525307310e+00" polarizability="2.1062528957e+01 3.0891335756e-13 1.9064146813e-10 3.0828683964e-13 2.1062528957e+01 2.4796190544e-09 -1.6055672016e-07 1.8319752310e-08 1.9186926312e+01" dipole_derivatives="-1.1890110464e+00 -1.8840637673e-11 -3.9849321240e-11 2.2284975283e-12 -1.1890110519e+00 -6.7585761388e-10 -3.6776942602e-08 2.7839600070e-07 -6.8293221947e-01 1.8901237217e-01 -4.7380950604e-13 5.1747626931e-11 4.1258637800e-13 1.8901237765e-01 6.6934050174e-10 3.6793484925e-08 -2.7839680561e-07 -3.1706802454e-01" charge=-1 multiplicity=1 method=b3lyp basis=def2-svpd config_type=oh- sample_index=18 temperature=500.0 units=atomic
O        -0.0000000000      -0.0000000001       0.0582091570   1.360156000951e-12   1.761598434938e-11  -1.329904115815e-02
H         0.0000000001       0.0000000012      -0.9238215634  -1.354225171122e-12  -1.760459609728e-11   1.329879223944e-02
2
Properties=species:S:1:pos:R:3:forces:R:3 energy=-7.575258053341e+01 dipole="4.3189365677e-15 -1.1226994521e-10 -4.6905596023e-01" quadrupole="-8.0743675332e+00 -2.2839022002e-10 -2.3735223503e-14 -2.2839022002e-10 -8.0743675350e+00 6.1790904343e-10 -2.3735223503e-14 6.1790904343e-10 -6.1383721037e+00" polarizability="2.1066288712e+01 3.0314000466e-10 1.7715603796e-13 3.0315237252e-10 2.1066288714e+01 -7.1114306389e-10 1.0276126834e-11 4.0676763352e-07 1.8777605296e+01" dipole_derivatives="-1.1980472872e+00 -6.4494217530e-12 -2.3387247502e-12 -8.5205737414e-12 -1.1980472882e+00 1.6919742930e-10 -7.1769229448e-08 1.6839421524e-07 -6.9762951056e-01 1.9804853222e-01 3.6978357769e-13 -3.4412810428e-13 -7.9697361130e-14 1.9804853325e-01 -1.5556651525e-10 7.1778333277e-08 -1.6837922723e-07 -3.0237064224e-01" charge=-1 multiplicity=1 method=b3lyp basis=def2-svpd config_type=oh- sample_index=19 temperature=500.0 units=atomic
O         0.0000000000       0.0000000000       0.0571731689   3.044868068597e-15   9.301099503446e-13   2.901000784411e-03
H        -0.0000000000      -0.0000000003      -0.9073796799   4.539208085738e-17  -9.025011946719e-13  -2.901313499757e-03
2
Properties=species:S:1:pos:R:3:forces:R:3 energy=-7.574252889625e+01 dipole="4.9605482626e-10 3.8464383396e-09 -4.0032050449e-01" quadrupole="-8.1559946838e+00 1.8113290899e-15 -2.0694707176e-09 1.8113290899e-15 -8.1559946838e+00 -1.8494728170e-08 -2.0694707176e-09 -1.8494728170e-08 -6.2597448696e+00" polarizability="2.0991605262e+01 -4.6518239962e-14 -8.9812031242e-10 -7.6613920176e-14 2.0991605262e+01 -7.9329843029e-09 1.1247039237e-08 -7.7478491340e-09 2.1802697777e+01" dipole_derivatives="-1.1354124165e+00 9.4787488249e-12 -5.8459434598e-10 -2.3061235557e-12 -1.1354124160e+00 -5.2624441167e-09 -3.6183685215e-07 -5.1568485593e-08 -5.9598348536e-01 1.3541268186e-01 -4.0012771524e-13 5.9454671587e-10 3.1941794752e-13 1.3541268130e-01 5.2508395415e-09 3.6184250041e-07 5.1573356696e-08 -4.0401679248e-01" charge=-1 multiplicity=1 method=b3lyp basis=def2-svpd config_type=oh- sample_index=20 temperature=500.0 units=atomic
O        -0.0000000001      -0.0000000006       0.0644945149   8.455622470515e-11   7.469704392334e-10  -7.667622877588e-02
H         0.0000000011       0.0000000100      -1.0235747533  -8.456477085550e-11  -7.469852304519e-10   7.667660770512e-02
2
Properties=species:S:1:pos:R:3:forces:R:3 energy=-7.575256257805e+01 dipole="2.5611837774e-15 1.4646908528e-10 -4.6516394914e-01" quadrupole="-8.0807570923e+00 -2.8300080911e-14 -6.7185982908e-15 -2.8300080911e-14 -8.0807570923e+00 -8.1673246694e-10 -6.7185982908e-15 -8.1673246694e-10 -6.1450363098e+00" polarizability="2.1064822376e+01 2.4182811567e-13 1.4937876634e-14 2.4950753708e-13 2.1064822376e+01 8.5954031418e-10 1.4313581206e-11 -5.8114002600e-07 1.8972412405e+01" dipole_derivatives="-1.1937215560e+00 2.5185064253e-11 1.8178838534e-11 -7.6619402674e-12 -1.1937215572e+00 -1.9907285795e-10 4.0795811174e-08 1.0962639130e-07 -6.9060529478e-01 1.9372285720e-01 -3.9908720776e-14 1.2790569322e-13 8.0331313269e-14 1.9372285845e-01 2.0677584857e-10 -4.0791092726e-08 -1.0963538410e-07 -3.0939490277e-01" charge=-1 multiplicity=1 method=b3lyp basis=def2-svpd config_type=oh- sample_index=21 temperature=500.0 units=atomic
O        -0.0000000000      -0.0000000000       0.0576682354   3.001406956058e-14   2.129748389432e-12  -5.096076108419e-03
H         0.0000000000       0.0000000004      -0.9152367452   5.718564839063e-16  -2.095341992426e-12   5.095795290977e-03
2
Properties=species:S:1:pos:R:3:forces:R:3 energy=-7.575159057094e+01 dipole="-1.2081329595e-10 -1.5458552560e-09 -4.8164675316e-01" quadrupole="-8.0513217863e+00 -4.6741386915e-10 6.3647344993e-10 -4.6741386915e-10 -8.0513217874e+00 5.9704792989e-09 6.3647344993e-10 5.9704792989e-09 -6.1166466047e+00" polarizability="2.1066449045e+01 4.8190836997e-10 -9.4524427600e-10 4.8245168184e-10 2.1066449047e+01 -9.1369204962e-09 3.1006851062e-07 -1.7030031186e-08 1.8116046602e+01" dipole_derivatives="-1.2131002066e+00 -2.7331399827e-11 1.6100299370e-10 1.3646967609e-11 -1.2131002040e+00 1.5419879611e-09 4.3576309228e-08 2.5345600618e-07 -7.2182556733e-01 2.1310109396e-01 -3.2700038386e-12 -1.5848230496e-10 3.1506579904e-12 2.1310109136e-01 -1.5280189919e-09 -4.3569481356e-08 -2.5346968968e-07 -2.7817434115e-01" charge=-1 multiplicity=1 method=b3lyp basis=def2-svpd config_type=oh- sample_index=22 temperature=500.0 units=atomic
O         0.0000000000       0.0000000002       0.0554632763   1.104842733193e-11   1.069326562335e-10   3.449655554584e-02
H        -0.0000000003      -0.0000000027      -0.8802424434  -1.106001051425e-11  -1.069144474917e-10  -3.449668656850e-02
2
Properties=species:S:1:pos:R:3:forces:R:3 energy=-7.575130801985e+01 dipole="1.3328070958e-10 1.5109374834e-09 -4.4825053358e-01" quadrupole="-8.1053594129e+00 1.8143661205e-14 -7.8742286402e-10 1.8143661205e-14 -8.1053594129e+00 -6.5236136545e-09 -7.8742286402e-10 -6.5236136545e-09 -6.1740579955e+00" polarizability="2.1052876267e+01 -2.8617354641e-13 5.0584029987e-10 -2.9162177420e-13 2.1052876267e+01 4.2995601786e-09 -7.8354912369e-07 9.7863829880e-09 1.9777010262e+01" dipole_derivatives="-1.1763237689e+00 -5.4387087421e-12 -1.9012129409e-10 1.4784704540e-11 -1.1763237695e+00 -1.7343913750e-09 -2.3120219628e-07 -2.4400770293e-07 -6.6219560362e-01 1.7632503265e-01 -4.3854820197e-13 2.0418865965e-10 1.4586605027e-13 1.7632503327e-01 1.7327936631e-09 2.3118856829e-07 2.4401053400e-07 -3.3780475204e-01" charge=-1 multiplicity=1 method=b3lyp basis=def2-svpd config_type=oh- sample_index=23 temperature=500.0 units=atomic
O        -0.0000000000      -0.0000000002       0.0596752978   1.310270006441e-11   1.113144610334e-10  -3.296281161220e-02
H         0.0000000004       0.0000000032      -0.9470902809  -1.309581668166e-11  -1.113200190874e-10   3.296255505632e-02
2
Properties=species:S:1:pos:R:3:forces:R:3 energy=-7.574184724045e+01 dipole="-6.5659877738e-10 -4.9198641005e-09 -5.0505310509e-01" quadrupole="-7.9944508596e+00 -1.3893971286e-11 2.1657547210e-09 -1.3893971286e-11 -7.9944508605e+00 1.8743214475e-08 2.1657547210e-09 1.8743214475e-08 -6.0735512400e+00" polarizability="2.1036715247e+01 3.1117507890e-11 -4.9716876878e-09 3.1139634976e-11 2.1036715249e+01 -4.2261624314e-08 5.2700192564e-07 -4.5186301495e-08 1.6702893146e+01" dipole_derivatives="-1.2474516157e+00 2.1336444428e-11 5.5051679387e-10 8.1528806314e-12 -1.2474516168e+00 4.5957416793e-09 -2.7647323320e-07 2.2926516241e-07 -7.7459589465e-01 2.4745092601e-01 -1.3323756671e-11 -5.4457218859e-10 1.3205034778e-11 2.4745092715e-01 -4.6131336954e-09 2.7646790413e-07 -2.2926902044e-07 -2.2540358095e-01" charge=-1 multiplicity=1 method=b3lyp basis=def2-svpd config_type=oh- sample_index=24 temperature=500.0 units=atomic
O         0.0000000001       0.0000000005       0.0516452204   1.524800632515e-10   1.296190745655e-09   1.328643850895e-01
H        -0.0000000009      -0.0000000080      -0.8196471260  -1.524912745525e-10  -1.296169505268e-09  -1.328637262458e-01
2