5
Properties=species:S:1:pos:R:3:forces:R:3 energy=-4.043151640639e+01 dipole="-1.7609955395e-03 -2.2798859704e-02 3.1508629135e-02" quadrupole="-6.3071033007e+00 -8.2564101231e-02 -3.7481585503e-02 -8.2564101231e-02 -6.3252455567e+00 5.4436364983e-02 -3.7481585503e-02 5.4436364983e-02 -6.5043636934e+00" polarizability="1.7442006385e+01 -7.2962638639e-01 1.0610312260e+00 -7.2962638639e-01 1.7397039703e+01 -9.3610765556e-02 1.0610312260e+00 -9.3610765556e-02 1.7034326414e+01" charge=0 multiplicity=1 method=wB97M-V basis=def2-svpd config_type=ch4 sample_index=0 temperature=300.0 units=atomic
C         0.0049138301      -0.0141078803      -0.0003695033   5.199265437675e-03   8.586498084343e-02  -3.666846035020e-02
H         0.6312823262       0.6687454839       0.6464225720  -9.995031077797e-03  -1.388088475182e-02  -1.090814778955e-02
H        -0.6164176996      -0.5716579562       0.5896403543  -3.387065238628e-02  -3.483794513882e-02   3.616487464478e-02
H        -0.7207591439       0.7163048409      -0.6317808196   3.589590558252e-02  -3.467713851470e-02   2.105113258150e-02
H         0.6469567012      -0.6441144096      -0.5998960444   2.770902532820e-03  -2.470112059450e-03  -9.641001815289e-03
5
Properties=species:S:1:pos:R:3:forces:R:3 energy=-4.042278630989e+01 dipole="-1.9914226968e-02 -2.7777638808e-02 -5.3564124276e-03" quadrupole="-6.7667118493e+00 2.9479462351e-03 1.8007529677e-01 2.9479462351e-03 -5.7923092890e+00 1.1295951192e-01 1.8007529677e-01 1.1295951192e-01 -6.3198551174e+00" polarizability="1.5509954747e+01 5.5601719085e-01 -4.4037710290e-01 5.5601719085e-01 1.6727178375e+01 -2.3932997741e-01 -4.4037710290e-01 -2.3932997741e-01 1.5987378941e+01" charge=0 multiplicity=1 method=wB97M-V basis=def2-svpd config_type=ch4 sample_index=1 temperature=300.0 units=atomic
C         0.0134935941       0.0173421102      -0.0066976863  -2.032343114398e-02  -5.036247174577e-02   4.631583590969e-02
H         0.5110253761       0.6653573081       0.6596646355   3.140362866495e-02   7.348147614606e-03   1.503266067764e-02
H        -0.5510400863      -0.7448460350       0.5942338227  -1.075776383235e-02   2.417049380615e-02   1.573493619290e-03
H        -0.5665879035       0.6154744353      -0.5949636524  -4.407102500293e-02   2.892785217291e-02  -3.551493489132e-02
H         0.4447461155      -0.7439973503      -0.5785669942   4.374412774846e-02  -1.007876132402e-02  -2.741149047134e-02
5
Properties=species:S:1:pos:R:3:forces:R:3 energy=-4.043323628373e+01 dipole="1.7665424061e-02 6.7887143483e-04 -5.6987303756e-03" quadrupole="-6.0198755114e+00 1.1993007356e-01 -1.1978269634e-01 1.1993007356e-01 -6.5774702622e+00 -4.9486228505e-02 -1.1978269634e-01 -4.9486228505e-02 -6.5963936934e+00" polarizability="1.8037912815e+01 -3.6471411266e-01 5.7265352055e-01 -3.6471411266e-01 1.7194956896e+01 -4.6994685034e-01 5.7265352055e-01 -4.6994685034e-01 1.7147150930e+01" charge=0 multiplicity=1 method=wB97M-V basis=def2-svpd config_type=ch4 sample_index=2 temperature=300.0 units=atomic
C         0.0013082475      -0.0156772478       0.0135923859  -2.090320616464e-02   5.051064923723e-02  -3.433617343301e-02
H         0.7068279852       0.6463861316       0.5434776167  -1.388318243091e-02  -5.436245684574e-04   1.123770152209e-02
H        -0.7208054342      -0.5888780193       0.5861186455   8.461196642355e-03  -9.075980407745e-03   9.521065351999e-03
H        -0.6980268389       0.6662484774      -0.6615255711   3.113395938683e-02  -2.290465198948e-02   2.217444649809e-02
H         0.6962819037      -0.5356910528      -0.6311173309  -4.807554968180e-03  -1.798628413084e-02  -8.597942949146e-03
5
Properties=species:S:1:pos:R:3:forces:R:3 energy=-4.043819566716e+01 dipole="-2.7334224220e-02 -2.1943185625e-02 2.0596955932e-02" quadrupole="-6.5428409491e+00 -2.9427211229e-02 1.1492458221e-01 -2.9427211229e-02 -6.1154379643e+00 1.1054375760e-01 1.1492458221e-01 1.1054375760e-01 -6.3773955073e+00" polarizability="1.6444399802e+01 -4.4137605465e-01 3.0943232827e-02 -4.4137605465e-01 1.7112565169e+01 2.5623743795e-01 3.0943232827e-02 2.5623743795e-01 1.6687729201e+01" charge=0 multiplicity=1 method=wB97M-V basis=def2-svpd config_type=ch4 sample_index=3 temperature=300.0 units=atomic
C         0.0079817521       0.0090597202       0.0015414162   1.593991807097e-03  -8.690142683300e-03  -3.357895018961e-02
H         0.5714149874       0.6482051678       0.6631339185   1.381091245459e-02   2.120050532454e-03   2.616604999421e-03
H        -0.5797740454      -0.6559189427       0.5770214332  -2.239202680652e-02  -1.116192296840e-02   2.081899660364e-02
H        -0.6544133399       0.6367321369      -0.6257801615   4.784189577341e-03  -6.068781909271e-03   2.499747079946e-03
H         0.5670559558      -0.7376721584      -0.6328941134   2.199562427167e-03   2.380052180415e-02   7.645514206305e-03
5
Properties=species:S:1:pos:R:3:forces:R:3 energy=-4.042117097736e+01 dipole="-2.4073427876e-02 -2.2387257276e-02 3.9454466455e-02" quadrupole="-6.0133877741e+00 -5.1928300509e-02 1.0346508227e-02 -5.1928300509e-02 -6.6182700538e+00 1.7702593128e-01 1.0346508227e-02 1.7702593128e-01 -6.8179324358e+00" polarizability="1.9818829154e+01 -1.1958584038e+00 6.5766555908e-01 -1.1958584038e+00 1.8624602364e+01 1.9914791339e-01 6.5766555908e-01 1.9914791339e-01 1.8150053326e+01" charge=0 multiplicity=1 method=wB97M-V basis=def2-svpd config_type=ch4 sample_index=4 temperature=300.0 units=atomic
C         0.0102684434      -0.0039137044       0.0045756485   5.901434370259e-03   2.964924033658e-02  -4.405487878207e-02
H         0.6983370999       0.6548068715       0.6408129233  -2.473280970864e-02  -1.527958079261e-02  -1.238082901625e-02
H        -0.7248069688      -0.5662965252       0.5406938770   1.202325693199e-03  -1.844080391915e-02   2.208259910156e-02
H        -0.8283846080       0.6582655460      -0.6032626649   5.429399427673e-02  -2.469276257362e-02   1.585921309572e-02
H         0.7317212473      -0.6997996149      -0.6331883886  -3.666597779238e-02   2.876203419762e-02   1.849158567886e-02
5
Properties=species:S:1:pos:R:3:forces:R:3 energy=-4.041784524293e+01 dipole="-6.1680729480e-02 7.4322125808e-02 -4.2811944633e-02" quadrupole="-6.1668492568e+00 1.9557175996e-03 -2.4102989276e-01 1.9557175996e-03 -6.9288418236e+00 2.9465968812e-01 -2.4102989276e-01 2.9465968812e-01 -6.1839830755e+00" polarizability="1.8400724087e+01 6.1287900817e-01 -1.0503793611e+00 6.1287900817e-01 1.7050354378e+01 4.7033424362e-01 -1.0503793611e+00 4.7033424362e-01 1.8437524909e+01" charge=0 multiplicity=1 method=wB97M-V basis=def2-svpd config_type=ch4 sample_index=5 temperature=300.0 units=atomic
C         0.0188701347      -0.0165960415      -0.0020254452   9.809318960649e-03  -1.360719777427e-02   4.607233667233e-02
H         0.5978835037       0.6775103333       0.6965436635  -9.551696479392e-03  -1.489116780569e-02  -2.327615849345e-02
H        -0.8261013638      -0.4590458875       0.6926583224   4.357742373999e-02  -1.259968631671e-02  -2.381595771372e-02
H        -0.6629591652       0.5104826972      -0.5654126932  -2.631518187181e-02   4.470660348030e-02  -3.395306489714e-02
H         0.6648978800      -0.5299457815      -0.7994545390  -1.752108886285e-02  -3.608423409396e-03   3.497506022860e-02
5
Properties=species:S:1:pos:R:3:forces:R:3 energy=-4.041719443269e+01 dipole="-4.5842694722e-02 2.8946706728e-02 -1.1100716990e-02" quadrupole="-6.0406998897e+00 6.6772812969e-02 3.4252772337e-02 6.6772812969e-02 -6.2983991195e+00 2.0738944347e-01 3.4252772337e-02 2.0738944347e-01 -6.6146132715e+00" polarizability="1.6867568503e+01 -8.6343339069e-02 -1.3495961747e+00 -8.6343339069e-02 1.6504635125e+01 2.1067230790e-01 -1.3495961747e+00 2.1067230790e-01 1.6104869789e+01" charge=0 multiplicity=1 method=wB97M-V basis=def2-svpd config_type=ch4 sample_index=6 temperature=300.0 units=atomic
C         0.0141637858       0.0181450281       0.0085009279  -1.027556501373e-02  -1.412643855155e-01  -2.789987341787e-02
H         0.5970484859       0.6153785221       0.5454745743   4.979577419646e-02   4.949846418136e-02   5.685525117842e-02
H        -0.7483976475      -0.6451113696       0.5327654632   2.837186099802e-02   9.796652402964e-03   7.358760735525e-03
H        -0.6695875336       0.5238593095      -0.5173284620  -4.418817200072e-02   5.127411953536e-02  -5.782189425001e-02
H         0.6510834332      -0.7118554036      -0.6628823480  -2.369882665673e-02   3.070449747651e-02   2.150270592084e-02
5
Properties=species:S:1:pos:R:3:forces:R:3 energy=-4.041514231540e+01 dipole="-1.6565364208e-02 1.5959080803e-02 -3.9892147213e-02" quadrupole="-6.2156221382e+00 1.2105353938e-01 3.6135631318e-02 1.2105353938e-01 -6.8878385250e+00 5.8339395059e-02 3.6135631318e-02 5.8339395059e-02 -6.1429549564e+00" polarizability="1.8302222122e+01 1.1380529327e+00 -8.0069758273e-01 1.1380529327e+00 1.7150267533e+01 6.4000397201e-01 -8.0069758273e-01 6.4000397201e-01 1.8292942936e+01" charge=0 multiplicity=1 method=wB97M-V basis=def2-svpd config_type=ch4 sample_index=7 temperature=300.0 units=atomic
C        -0.0036542443       0.0102809751      -0.0041708345   7.249491653786e-02  -6.725431868338e-02   9.658992754135e-02
H         0.7303409638       0.6028220576       0.7194083472  -3.620881633446e-02  -1.276848090617e-02  -3.481219630410e-02
H        -0.7390198637      -0.6113791844       0.6969047948   3.709128112386e-02   1.362238029432e-02  -2.976755109983e-02
H        -0.6094621729       0.4507606460      -0.6412305168  -6.022464903831e-02   6.942741560720e-02  -5.711523046604e-02
H         0.6620199275      -0.5655618927      -0.7249707261  -1.315212929388e-02  -3.026529443527e-03   2.510448870763e-02
5
Properties=species:S:1:pos:R:3:forces:R:3 energy=-4.041743082936e+01 dipole="-3.7925294227e-02 -7.1513436162e-03 3.0605014295e-02" quadrupole="-6.6838959235e+00 -2.9769235055e-01 -2.0915381798e-01 -2.9769235055e-01 -6.1059725682e+00 1.0149999825e-01 -2.0915381798e-01 1.0149999825e-01 -6.5931842863e+00" polarizability="1.7895541235e+01 -8.4422353743e-02 1.0168226735e+00 -8.4422353743e-02 1.9231176385e+01 1.4215335200e+00 1.0168226735e+00 1.4215335200e+00 1.8230867247e+01" charge=0 multiplicity=1 method=wB97M-V basis=def2-svpd config_type=ch4 sample_index=8 temperature=300.0 units=atomic
C        -0.0043161718      -0.0242356418      -0.0223155786   5.261135394544e-02   8.562719964087e-02   3.294354154296e-03
H         0.5760399334       0.7858474623       0.7347632281  -1.344787854566e-02  -4.850655503149e-02  -3.887202125379e-02
H        -0.5595328387      -0.5557226586       0.6594210736  -3.534248898670e-02  -3.133743862692e-02   3.095494109016e-02
H        -0.6392322407       0.7902048786      -0.5161858365   1.235135850769e-02  -3.351436101001e-02  -4.368952206252e-03
H         0.6745721912      -0.7295969276      -0.6103606940  -1.617139551925e-02   2.773203630132e-02   8.991389422746e-03
5
Properties=species:S:1:pos:R:3:forces:R:3 energy=-4.042014827513e+01 dipole="-6.2427202256e-03 -6.9239346610e-04 2.4451467945e-02" quadrupole="-6.7493797259e+00 4.5152548484e-02 1.7927302215e-01 4.5152548484e-02 -6.2684785349e+00 -6.4983598329e-02 1.7927302215e-01 -6.4983598329e-02 -6.2415028226e+00" polarizability="1.7244574633e+01 -1.3529828689e+00 -9.2759290867e-01 -1.3529828689e+00 1.8215948405e+01 3.4287521205e-01 -9.2759290867e-01 3.4287521205e-01 1.8127790577e+01" charge=0 multiplicity=1 method=wB97M-V basis=def2-svpd config_type=ch4 sample_index=9 temperature=300.0 units=atomic
C        -0.0060962075       0.0235119288       0.0179386558  -1.968069805517e-02  -8.488991063008e-02  -1.037294180993e-01
H         0.5796508602       0.5720028069       0.6237208340   4.965022071889e-02   4.333483641706e-02   3.973219429341e-02
H        -0.5345430243      -0.7219314988       0.6240780739  -1.384040508144e-02   8.898091408128e-03  -1.508839101167e-03
H        -0.5964294912       0.6342465543      -0.7402446051   5.475692067805e-03  -1.366536263323e-02   2.608051561543e-02
H         0.6244455839      -0.7663688643      -0.7227955966  -2.159689130722e-02   4.632166799280e-02   3.943444244321e-02
5
Properties=species:S:1:pos:R:3:forces:R:3 energy=-4.042849685942e+01 dipole="2.1298526671e-02 -1.9885159867e-03 -3.8186198188e-02" quadrupole="-6.6310371439e+00 2.6819768109e-01 -8.0428478943e-02 2.6819768109e-01 -6.3448808042e+00 3.8366705316e-03 -8.0428478943e-02 3.8366705316e-03 -6.3638208841e+00" polarizability="1.7878450806e+01 2.5820711312e-01 4.3851154433e-01 2.5820711312e-01 1.8453305617e+01 -1.0631712749e+00 4.3851154433e-01 -1.0631712749e+00 1.8353900460e+01" charge=0 multiplicity=1 method=wB97M-V basis=def2-svpd config_type=ch4 sample_index=10 temperature=300.0 units=atomic
C         0.0106363589      -0.0099229896       0.0182669872  -5.760736576576e-02   3.381469203374e-02  -6.224373697986e-03
H         0.6341243081       0.7272570137       0.5891406291  -7.116262592205e-03  -1.957947118050e-02  -2.861859597292e-03
H        -0.7015497737      -0.7136263809       0.6386372198   2.755277055021e-02   3.148485222040e-02  -2.045570949476e-02
H        -0.6050767384       0.6802803368      -0.7445618373   1.399621970257e-02  -2.695279808135e-02   3.732092699671e-02
H         0.5448678314      -0.5748735247      -0.7022820954   2.317034613299e-02  -1.876681472474e-02  -7.773269979680e-03
5
Properties=species:S:1:pos:R:3:forces:R:3 energy=-4.042613565042e+01 dipole="-4.0727311946e-02 2.9435270376e-02 -3.3022062446e-02" quadrupole="-6.3684682070e+00 5.1788596659e-02 1.0454127948e-02 5.1788596659e-02 -6.2592250966e+00 2.9184043397e-01 1.0454127948e-02 2.9184043397e-01 -6.6873230867e+00" polarizability="1.8279103112e+01 8.5967668473e-01 -9.6410870848e-01 8.5967668473e-01 1.8442997956e+01 1.7864134207e-01 -9.6410870848e-01 1.7864134207e-01 1.7642124223e+01" charge=0 multiplicity=1 method=wB97M-V basis=def2-svpd config_type=ch4 sample_index=11 temperature=300.0 units=atomic
C         0.0216152182       0.0093135913      -0.0015327947  -1.189565899919e-02  -6.149468066401e-02   3.149984994877e-02
H         0.6017767642       0.7310514943       0.6345117760  -4.173547019844e-03  -2.174954772441e-02  -6.220571001194e-03
H        -0.7794706502      -0.6911217537       0.5867762569   4.435622788511e-02   3.074848551190e-02  -1.299174680274e-02
H        -0.6775283149       0.5813735295      -0.5294823689  -1.765732692471e-02   2.292419251632e-02  -3.153240700481e-02
H         0.5959920153      -0.7330725878      -0.6733753488  -1.062703360869e-02   2.957301458612e-02   1.924891920507e-02
5
Properties=species:S:1:pos:R:3:forces:R:3 energy=-4.042324557496e+01 dipole="-4.1069576448e-02 -9.3421549664e-03 -4.1141469452e-03" quadrupole="-6.3723200365e+00 2.1211614947e-01 2.3875005275e-01 2.1211614947e-01 -6.4229687187e+00 2.1315884703e-01 2.3875005275e-01 2.1315884703e-01 -6.4344570122e+00" polarizability="1.7503225669e+01 -7.4084966763e-01 -7.6625467341e-01 -7.4084966763e-01 1.7625390519e+01 3.9281236968e-01 -7.6625467341e-01 3.9281236968e-01 1.7572019139e+01" charge=0 multiplicity=1 method=wB97M-V basis=def2-svpd config_type=ch4 sample_index=12 temperature=300.0 units=atomic
C         0.0152564776       0.0276693891       0.0249015600  -4.975328484075e-02  -1.010926254484e-01  -9.661384775076e-02
H         0.6167849608       0.5954405115       0.6059396597   3.852538356864e-02   3.878964891826e-02   3.857217874379e-02
H        -0.6842479805      -0.6905552808       0.5110747559   1.223610699741e-02   1.063151023206e-02   1.144385955030e-02
H        -0.6923089638       0.5086366539      -0.6844551976   1.241800207314e-02   1.219511175749e-02   9.211265583721e-03
H         0.5768023530      -0.7454374039      -0.7312763404  -1.342284955502e-02   3.947552535907e-02   3.738772021102e-02
5
Properties=species:S:1:pos:R:3:forces:R:3 energy=-4.042783942339e+01 dipole="-1.2714120326e-02 4.5666094761e-02 -2.6921603022e-02" quadrupole="-6.2970223016e+00 -6.6229885317e-03 -2.3473236051e-01 -6.6229885317e-03 -6.6326812771e+00 5.3807523693e-02 -2.3473236051e-01 5.3807523693e-02 -6.1966965877e+00" polarizability="1.7352933864e+01 1.0498565476e+00 -2.2284829771e-01 1.0498565476e+00 1.6808168321e+01 -4.6807627194e-02 -2.2284829771e-01 -4.6807627194e-02 1.7452444720e+01" charge=0 multiplicity=1 method=wB97M-V basis=def2-svpd config_type=ch4 sample_index=13 temperature=300.0 units=atomic
C         0.0069716524      -0.0201784484      -0.0122394834  -2.523588777551e-02   2.831522194636e-02   9.563270012904e-02
H         0.6195700833       0.6805729539       0.6702345983  -1.314501197805e-02  -1.933366391265e-02  -2.013061599563e-02
H        -0.7391887557      -0.5483858513       0.7368580306   3.477435815718e-02   4.588300514503e-03  -3.460091807681e-02
H        -0.6032995822       0.6113070451      -0.5856141263  -2.196461038331e-02   2.407626451555e-02  -2.020603709293e-02
H         0.6392938597      -0.5014864500      -0.6746037363   2.556932921045e-02  -3.764106406097e-02  -2.069326111745e-02
5
Properties=species:S:1:pos:R:3:forces:R:3 energy=-4.042967859275e+01 dipole="-2.5493612027e-02 -3.7456940784e-02 -1.3301592057e-02" quadrupole="-6.5242526727e+00 1.5831030961e-01 2.0377349524e-01 1.5831030961e-01 -6.0252989920e+00 1.3268088991e-01 2.0377349524e-01 1.3268088991e-01 -6.6213974930e+00" polarizability="1.7183114556e+01 -1.3429644446e-01 5.6974747775e-01 -1.3429644446e-01 1.7953382751e+01 6.5663074697e-01 5.6974747775e-01 6.5663074697e-01 1.7130887733e+01" charge=0 multiplicity=1 method=wB97M-V basis=def2-svpd config_type=ch4 sample_index=14 temperature=300.0 units=atomic
C         0.0031580268       0.0070222517       0.0141453577   3.221234450571e-02   3.655184130510e-02  -3.565621103062e-02
H         0.6712258618       0.7309937373       0.6366498444  -2.200228720994e-02  -3.355194585215e-02  -1.627661031680e-02
H        -0.5963074060      -0.7053230873       0.4750593453  -3.004225765504e-02  -1.619562842725e-02   4.098879681044e-02
H        -0.6549496650       0.6280456533      -0.6537274137   1.086490192717e-02  -9.298329529783e-03   9.194778196736e-03
H         0.5421979076      -0.7378853749      -0.6276474692   8.967583047628e-03   2.249555417803e-02   1.750690635319e-03
5
Properties=species:S:1:pos:R:3:forces:R:3 energy=-4.042220843262e+01 dipole="-1.7146886716e-02 4.9784522728e-02 -2.4872297438e-03" quadrupole="-7.0435696335e+00 1.4478496141e-02 -3.3769124119e-01 1.4478496141e-02 -6.1601922312e+00 4.2205474440e-02 -3.3769124119e-01 4.2205474440e-02 -6.1066972371e+00" polarizability="1.6947927652e+01 -3.3146962394e-01 1.7670541529e-01 -3.3146962394e-01 1.8492459293e+01 3.5669470061e-01 1.7670541529e-01 3.5669470061e-01 1.8539433950e+01" charge=0 multiplicity=1 method=wB97M-V basis=def2-svpd config_type=ch4 sample_index=15 temperature=300.0 units=atomic
C         0.0009167374      -0.0278227939       0.0061989936   1.885686374375e-02   5.402341692595e-02  -3.448281791660e-02
H         0.4684715139       0.7843323386       0.6506893695   1.833736915025e-02  -2.809782115976e-02  -1.201679161863e-02
H        -0.5714535333      -0.5873862621       0.7180880586  -1.997211549555e-02  -1.147987356049e-02  -2.483010056333e-03
H        -0.4847351748       0.7650126483      -0.6577796678  -1.518840616254e-02  -2.838655922867e-02   1.386252353009e-02
H         0.5767448185      -0.6282609491      -0.7853725349  -2.032917167516e-03   1.394045928586e-02   3.512138921581e-02
5
Properties=species:S:1:pos:R:3:forces:R:3 energy=-4.042973156564e+01 dipole="4.8775883708e-02 -4.0272036258e-02 -3.8417911891e-02" quadrupole="-6.3935461063e+00 7.0687878698e-02 1.5324227047e-01 7.0687878698e-02 -6.3174697374e+00 -2.5476022756e-01 1.5324227047e-01 -2.5476022756e-01 -6.6425228734e+00" polarizability="1.8404502979e+01 5.6439148471e-01 4.4246398787e-01 5.6439148471e-01 1.8544710369e+01 -4.0359408348e-01 4.4246398787e-01 -4.0359408348e-01 1.7945454986e+01" charge=0 multiplicity=1 method=wB97M-V basis=def2-svpd config_type=ch4 sample_index=16 temperature=300.0 units=atomic
C        -0.0180792155       0.0095900770       0.0037624747   1.163370522872e-02   4.638999801970e-03   1.683036018000e-02
H         0.7819476905       0.6297639000       0.5981025989  -3.850297483560e-02  -1.710557253922e-02  -1.112778811834e-02
H        -0.6024761817      -0.7832015603       0.6229787911   1.157081831032e-02   3.715334091943e-02  -1.339136313829e-02
H        -0.6202359860       0.6723997234      -0.7165924355   1.314567746403e-02  -2.062516029185e-02   2.386877396289e-02
H         0.6575737129      -0.6339515386      -0.5495827893   2.154882015885e-03  -4.065631240603e-03  -1.617968890871e-02
5
Properties=species:S:1:pos:R:3:forces:R:3 energy=-4.040547357621e+01 dipole="2.0645649819e-02 -4.0447547469e-02 -6.7195650361e-02" quadrupole="-6.1933922333e+00 1.6416693213e-01 1.4996895913e-01 1.6416693213e-01 -6.3070652678e+00 -6.2427477011e-02 1.4996895913e-01 -6.2427477011e-02 -6.2773755912e+00" polarizability="1.6083295373e+01 1.4371958033e+00 -1.1890117755e-02 1.4371958033e+00 1.5899302835e+01 3.9371737125e-01 -1.1890117755e-02 3.9371737125e-01 1.5567089311e+01" charge=0 multiplicity=1 method=wB97M-V basis=def2-svpd config_type=ch4 sample_index=17 temperature=300.0 units=atomic
C        -0.0136012523       0.0154778617      -0.0031962493   7.943318026137e-02  -5.353001757316e-02   1.725882536240e-01
H         0.7557142298       0.6223908273       0.6344073586  -3.574900346820e-02  -1.531189410080e-02  -1.825528196650e-02
H        -0.6259781937      -0.7163502825       0.5873925490   7.421836747652e-03   1.796604975869e-02  -1.243753057528e-03
H        -0.5341254386       0.4835232213      -0.6163203190  -1.024914372892e-01   1.018739237358e-01  -1.068447384527e-01
H         0.5675532135      -0.5752041074      -0.5670266186   5.138828479283e-02  -5.100399704394e-02  -4.624696788937e-02
5
Properties=species:S:1:pos:R:3:forces:R:3 energy=-4.040662447409e+01 dipole="-5.6843671486e-02 -6.8918698330e-03 5.3808996182e-02" quadrupole="-6.2492349913e+00 -1.8479105504e-01 -1.0269569793e-01 -1.8479105504e-01 -6.2581510059e+00 2.6341129984e-01 -1.0269569793e-01 2.6341129984e-01 -6.2100288471e+00" polarizability="1.5542198395e+01 -1.1574107693e+00 3.4397496209e-01 -1.1574107693e+00 1.5701486483e+01 5.1913633316e-01 3.4397496209e-01 5.1913633316e-01 1.5487077052e+01" charge=0 multiplicity=1 method=wB97M-V basis=def2-svpd config_type=ch4 sample_index=18 temperature=300.0 units=atomic
C         0.0146643174      -0.0089445399      -0.0001580782   7.396701924800e-02   5.869481999595e-02  -1.386843641896e-01
H         0.4877209471       0.6232215950       0.6603348064   4.184082796024e-02   3.114995287885e-02   2.485630576691e-02
H        -0.5820802703      -0.4526288438       0.5498355513  -1.162371996704e-01  -1.088732354367e-01   1.099353273293e-01
H        -0.7002908403       0.6309333218      -0.5424903942   9.968976791676e-03   1.988360352005e-04  -1.224044371353e-02
H         0.6188236679      -0.6942303991      -0.6658813357  -9.542115909818e-03   1.883108254317e-02   1.613421200342e-02
5
Properties=species:S:1:pos:R:3:forces:R:3 energy=-4.040571433100e+01 dipole="1.2233285386e-02 3.0662069030e-02 -4.5104440912e-03" quadrupole="-6.0819531247e+00 6.5511236062e-02 -1.2798624384e-01 6.5511236062e-02 -6.3262295022e+00 2.1739196517e-02 -1.2798624384e-01 2.1739196517e-02 -6.2885672192e+00" polarizability="1.5669926016e+01 -5.6797572420e-01 -4.4022260316e-01 -5.6797572420e-01 1.5297503558e+01 -1.0808716068e+00 -4.4022260316e-01 -1.0808716068e+00 1.5451516580e+01" charge=0 multiplicity=1 method=wB97M-V basis=def2-svpd config_type=ch4 sample_index=19 temperature=300.0 units=atomic
C         0.0164483182      -0.0042018236       0.0127945255  -1.672147639511e-01  -1.017863292249e-01  -1.021659606740e-01
H         0.5368552170       0.5633438214       0.4894497858   1.251857718070e-01   1.361423110244e-01   1.257890324189e-01
H        -0.7083082442      -0.5932398543       0.6172917008   1.601825008855e-02   1.986743983582e-04  -3.461394118708e-03
H        -0.6458844264       0.6287618676      -0.6212688134   6.776694718761e-03  -4.411697474337e-03   2.585766922064e-03
H         0.6199740235      -0.5485168413      -0.6389695711   1.922811916612e-02  -3.013908757055e-02  -2.275823516072e-02
5
Properties=species:S:1:pos:R:3:forces:R:3 energy=-4.043284267210e+01 dipole="-4.0733817896e-02 -2.8835660553e-02 2.0169106717e-02" quadrupole="-6.3960787546e+00 -1.6370258115e-01 6.0605002681e-02 -1.6370258115e-01 -6.2970501627e+00 7.1314658679e-02 6.0605002681e-02 7.1314658679e-02 -6.4964140207e+00" polarizability="1.7434559128e+01 1.7295486300e-01 4.8555893239e-01 1.7295486300e-01 1.7680528700e+01 1.0154069522e+00 4.8555893239e-01 1.0154069522e+00 1.7426271428e+01" charge=0 multiplicity=1 method=wB97M-V basis=def2-svpd config_type=ch4 sample_index=20 temperature=300.0 units=atomic
C        -0.0034724241       0.0015900497      -0.0163893515   5.861120051956e-02   1.556217642432e-02   2.824600251396e-02
H         0.6559235250       0.6741190604       0.7344501981  -2.526101512708e-02  -2.860206694146e-02  -3.634699485178e-02
H        -0.5908399820      -0.6090853992       0.6156701175  -1.838310713120e-02  -1.661732139449e-02   1.894878458391e-02
H        -0.6753380324       0.6398371824      -0.5616049319  -2.195752208157e-03   6.205365070810e-03  -1.518960265063e-02
H         0.6519697518      -0.7239115228      -0.5919330207  -1.277319895183e-02   2.345278338495e-02   4.343625880654e-03
5
Properties=species:S:1:pos:R:3:forces:R:3 energy=-4.041697799702e+01 dipole="3.4008916659e-02 -5.3916703931e-02 2.2090279708e-02" quadrupole="-6.1097972571e+00 -1.8056142094e-01 3.4032983478e-01 -1.8056142094e-01 -6.5556489714e+00 -2.0680145422e-01 3.4032983478e-01 -2.0680145422e-01 -6.4113148424e+00" polarizability="1.7363423840e+01 -8.1264563487e-01 1.6238297417e-01 -8.1264563487e-01 1.6892570599e+01 -9.5256131188e-01 1.6238297417e-01 -9.5256131188e-01 1.6974638373e+01" charge=0 multiplicity=1 method=wB97M-V basis=def2-svpd config_type=ch4 sample_index=21 temperature=300.0 units=atomic
C        -0.0003216913       0.0275116895      -0.0012278857  -8.734574867253e-02  -4.728352808846e-02  -6.445657806500e-02
H         0.6778218741       0.4056614274       0.6188503165   4.920077190900e-02   6.453085552226e-02   5.549422486953e-02
H        -0.5717222008      -0.6835035206       0.6274976024  -5.208531056640e-03   7.424430568997e-03  -3.297997431565e-03
H        -0.7666104782       0.6091970592      -0.7243827036   4.454446020949e-02  -1.810816610945e-02   3.637260228467e-02
H         0.6642800319      -0.6613142438      -0.5073056001  -1.187471269654e-03  -6.560201887878e-03  -2.411397267017e-02
5
Properties=species:S:1:pos:R:3:forces:R:3 energy=-4.043241358944e+01 dipole="9.1493670803e-03 -6.3833088951e-03 -7.9951410500e-03" quadrupole="-6.4211719018e+00 1.4037756453e-01 4.4994307301e-02 1.4037756453e-01 -6.0751514103e+00 -7.5626229425e-03 4.4994307301e-02 -7.5626229425e-03 -6.7843862904e+00" polarizability="1.7856364123e+01 -4.9959389806e-01 -1.1624436640e-01 -4.9959389806e-01 1.8478387694e+01 -2.9487472808e-01 -1.1624436640e-01 -2.9487472808e-01 1.7307747842e+01" charge=0 multiplicity=1 method=wB97M-V basis=def2-svpd config_type=ch4 sample_index=22 temperature=300.0 units=atomic
C         0.0025106132       0.0052591041       0.0177728454  -2.409428071656e-02  -2.178555870673e-02  -5.277447063386e-02
H         0.6556137681       0.6920255900       0.5230400204   6.009553224280e-03  -3.907240074070e-04   2.172718601225e-02
H        -0.6633719786      -0.7426668795       0.5348299323   1.176190416387e-02   2.431255704113e-02   6.995724019569e-03
H        -0.6562502123       0.6966936595      -0.6487379864   1.915326519456e-02  -2.754303685117e-02   1.562059276833e-02
H         0.6338742699      -0.7091375093      -0.6223304467  -1.282846351149e-02   2.540847548988e-02   8.429724968565e-03
5
Properties=species:S:1:pos:R:3:forces:R:3 energy=-4.042486594775e+01 dipole="-5.9054608885e-02 -1.7494046400e-02 3.4098804592e-02" quadrupole="-6.5455658599e+00 -1.1880684628e-01 2.4698208420e-02 -1.1880684628e-01 -6.7050049211e+00 2.6382179324e-01 2.4698208420e-02 2.6382179324e-01 -5.7602901092e+00" polarizability="1.6339224872e+01 -2.9053409291e-01 -1.6184292548e-01 -2.9053409291e-01 1.6148583185e+01 1.7524411201e-01 -1.6184292548e-01 1.7524411201e-01 1.7386520986e+01" charge=0 multiplicity=1 method=wB97M-V basis=def2-svpd config_type=ch4 sample_index=23 temperature=300.0 units=atomic
C         0.0228681643       0.0069901642      -0.0039826395  -2.065018172871e-02  -2.013718761461e-02  -3.838287713440e-02
H         0.4820714522       0.5454788202       0.7745258177   3.554378591282e-02   3.133341964332e-02   2.149969491171e-03
H        -0.6142874933      -0.4951344564       0.6773385555  -2.209047411862e-02  -3.568135610591e-02   5.880965763210e-03
H        -0.6838395667       0.5178438650      -0.6583915980   9.268476555486e-04   1.897500786229e-02   4.591043920028e-03
H         0.5417921059      -0.6520420731      -0.7457471688   6.269182654239e-03   5.516349694888e-03   2.575962792590e-02
5
Properties=species:S:1:pos:R:3:forces:R:3 energy=-4.040573400878e+01 dipole="2.0713503037e-02 -4.3897728300e-02 -1.5812700733e-02" quadrupole="-5.5257845924e+00 3.1907255202e-03 1.0888208063e-01 3.1907255202e-03 -6.8089518999e+00 -1.0398245679e-01 1.0888208063e-01 -1.0398245679e-01 -6.3873845462e+00" polarizability="1.6371358289e+01 4.9950489834e-01 5.8047218835e-01 4.9950489834e-01 1.4889825544e+01 3.0940268700e-01 5.8047218835e-01 3.0940268700e-01 1.5309892120e+01" charge=0 multiplicity=1 method=wB97M-V basis=def2-svpd config_type=ch4 sample_index=24 temperature=300.0 units=atomic
C        -0.0109999886       0.0062994816      -0.0052908433   3.838213589143e-02   3.247290426325e-02   5.654416778663e-02
H         0.7921313004       0.4716479624       0.6096826060  -2.766193165913e-02   2.527404813916e-02   4.635022095928e-03