3
Properties=species:S:1:pos:R:3:forces:R:3 energy=-1.884090850365e+02 dipole="-6.3384926251e-03 -8.7943816976e-03 1.4866527228e-02" quadrupole="-1.1156268174e+01 1.5070272530e-04 -1.1264700783e-04 1.5070272530e-04 -1.1156167661e+01 -1.5629353388e-04 -1.1264700783e-04 -1.5629353388e-04 -1.4575968665e+01" polarizability="1.2707511129e+01 4.3944339457e-04 -3.0268898340e-04 4.3944339457e-04 1.2707803889e+01 -4.1996227886e-04 -3.0268898340e-04 -4.1996227886e-04 2.5418667976e+01" charge=0 multiplicity=1 method=wB97M-V basis=def2-svpd config_type=co2 sample_index=0 temperature=300.0 units=atomic
C        -0.0042954267      -0.0059597195       0.0021341606   1.500616246816e-03   2.082042188695e-03  -1.224607795838e-02
O         0.0016092179       0.0022327205       1.1480382455  -7.190617813324e-04  -9.977092378624e-04   3.550326000370e-02
O         0.0016092178       0.0022327205      -1.1496378811  -7.783498505912e-04  -1.079966343413e-03  -2.325519227012e-02
3
Properties=species:S:1:pos:R:3:forces:R:3 energy=-1.884036286969e+02 dipole="2.8923127548e-02 2.5880732679e-02 1.3583189861e-01" quadrupole="-1.1102460342e+01 1.9767529963e-03 4.6056010562e-03 1.9767529963e-03 -1.1102900808e+01 4.1211242206e-03 4.6056010562e-03 4.1211242206e-03 -1.4533514735e+01" polarizability="1.2566348162e+01 5.8148915894e-03 1.2305342257e-02 5.8148915894e-03 1.2565053622e+01 1.1010908328e-02 1.2305342257e-02 1.1010908328e-02 2.4882939732e+01" charge=0 multiplicity=1 method=wB97M-V basis=def2-svpd config_type=co2 sample_index=1 temperature=300.0 units=atomic
C         0.0194008981       0.0173601163       0.0192680698  -5.384614605380e-03  -4.818188581622e-03  -1.215853590919e-01
O        -0.0072682588      -0.0065037102       1.1287695983   1.318168236076e-03   1.179074329834e-03   1.281418818597e-01
O        -0.0072682585      -0.0065037099      -1.1432117607   4.050779240775e-03   3.624301588784e-03  -6.539575576065e-03
3
Properties=species:S:1:pos:R:3:forces:R:3 energy=-1.884072615732e+02 dipole="5.0276990321e-02 -6.7007077396e-02 5.6691248986e-03" quadrupole="-1.1263262409e+01 -9.6246415752e-03 3.5856645535e-04 -9.6246415752e-03 -1.1257656030e+01 -4.7787824205e-04 3.5856645535e-04 -4.7787824205e-04 -1.4656192799e+01" polarizability="1.3082849906e+01 -2.7554121753e-02 9.7604237871e-04 -2.7554121753e-02 1.3098893336e+01 -1.3007867585e-03 9.7604237871e-04 -1.3007867585e-03 2.6571905397e+01" charge=0 multiplicity=1 method=wB97M-V basis=def2-svpd config_type=co2 sample_index=2 temperature=300.0 units=atomic
C         0.0350050804      -0.0466538740       0.0008407642  -1.556506065459e-02   2.074561696875e-02  -3.897593288591e-03
O        -0.0131141343       0.0174781821       1.1729891473   7.697748949499e-03  -1.026758157862e-02  -2.796471524637e-02
O        -0.0131141338       0.0174781814      -1.1736193328   7.842460844059e-03  -1.046033409147e-02   3.186317909673e-02
3
Properties=species:S:1:pos:R:3:forces:R:3 energy=-1.884007667258e+02 dipole="1.3246446635e-01 5.6123674790e-03 -9.8109170219e-02" quadrupole="-1.1286786884e+01 2.1984754815e-03 -1.6938186772e-02 2.1984754815e-03 -1.1338587738e+01 -7.1767015213e-04 -1.6938186772e-02 -7.1767015213e-04 -1.4699406739e+01" polarizability="1.3431537955e+01 6.2379915278e-03 -4.6508893812e-02 6.2379915278e-03 1.3284585874e+01 -1.9703582752e-03 -4.6508893812e-02 -1.9703582752e-03 2.7256615743e+01" charge=0 multiplicity=1 method=wB97M-V basis=def2-svpd config_type=co2 sample_index=3 temperature=300.0 units=atomic
C         0.0939866148       0.0039818495      -0.0148977533  -4.522512088894e-02  -1.915831194622e-03   6.029918885445e-02
O        -0.0352106916      -0.0014917409       1.1909421961   2.551447766124e-02   1.078072211249e-03  -8.612266490200e-02
O        -0.0352106902      -0.0014917408      -1.1797757548   1.972484978029e-02   8.325525409796e-04   2.581695518317e-02
3
Properties=species:S:1:pos:R:3:forces:R:3 energy=-1.884059988204e+02 dipole="3.4402669277e-02 -1.4152824659e-02 1.4679632571e-01" quadrupole="-1.1174345318e+01 -1.3303616901e-03 6.0960417330e-03 -1.3303616901e-03 -1.1177032618e+01 -2.5078088923e-03 6.0960417330e-03 -2.5078088923e-03 -1.4585092236e+01" polarizability="1.2794023540e+01 -3.8692799372e-03 1.6449934532e-02 -3.8692799372e-03 1.2786214032e+01 -6.7672897159e-03 1.6449934532e-02 -6.7672897159e-03 2.5601982945e+01" charge=0 multiplicity=1 method=wB97M-V basis=def2-svpd config_type=co2 sample_index=4 temperature=300.0 units=atomic
C         0.0234505482      -0.0096472010       0.0212096125  -8.197558842770e-03   3.372192175778e-03  -1.178856674082e-01
O        -0.0087854001       0.0036141808       1.1453189478   2.543977107027e-03  -1.044987296174e-03   8.314414737323e-02
O        -0.0087853998       0.0036141806      -1.1612163717   5.636186343028e-03  -2.317694681813e-03   3.475929260333e-02
3
Properties=species:S:1:pos:R:3:forces:R:3 energy=-1.884070643861e+02 dipole="-3.3628835927e-03 7.9300998231e-02 4.8202066674e-02" quadrupole="-1.1272581998e+01 -7.6251833676e-04 -2.0409002140e-04 -7.6251833676e-04 -1.1254631318e+01 4.8125505791e-03 -2.0409002140e-04 4.8125505791e-03 -1.4656772904e+01" polarizability="1.3070054768e+01 -2.1826626496e-03 -5.5566424926e-04 -2.1826626496e-03 1.3121416251e+01 1.3102354724e-02 -5.5566424926e-04 1.3102354724e-02 2.6593790745e+01" charge=0 multiplicity=1 method=wB97M-V basis=def2-svpd config_type=co2 sample_index=5 temperature=300.0 units=atomic
C        -0.0023423309       0.0552373760       0.0071513637   1.041380308625e-03  -2.456135348735e-02  -3.305342474537e-02
O         0.0008775195      -0.0206938639       1.1714357367  -4.782028180197e-04   1.131104175817e-02  -1.403868688064e-02
O         0.0008775195      -0.0206938630      -1.1767959603  -5.603558794577e-04   1.324400801711e-02   4.710409757806e-02
3
Properties=species:S:1:pos:R:3:forces:R:3 energy=-1.884060675947e+02 dipole="-5.2511124063e-02 -1.7063853665e-03 -1.2650109456e-01" quadrupole="-1.1265006753e+01 2.5606059704e-04 8.3584688356e-03 2.5606059704e-04 -1.1272878935e+01 2.7161698157e-04 8.3584688356e-03 2.7161698157e-04 -1.4652096426e+01" polarizability="1.3100216128e+01 7.3366269515e-04 2.2766114584e-02 7.3366269515e-04 1.3077671570e+01 7.3982320119e-04 2.2766114584e-02 7.3982320119e-04 2.6590396163e+01" charge=0 multiplicity=1 method=wB97M-V basis=def2-svpd config_type=co2 sample_index=6 temperature=300.0 units=atomic
C        -0.0365708888      -0.0011883672      -0.0187522182   1.590581798912e-02   5.168253936222e-04   8.717236232850e-02
O         0.0137007412       0.0004452041       1.1826596430  -9.637647782772e-03  -3.128309099745e-04  -7.168522698239e-02
O         0.0137007407       0.0004452041      -1.1686041312  -6.256158357054e-03  -2.027804899585e-04  -1.550258741023e-02
3
Properties=species:S:1:pos:R:3:forces:R:3 energy=-1.884078986813e+02 dipole="2.4431738833e-02 1.6166338584e-02 -2.8601406978e-02" quadrupole="-1.1288903537e+01 1.1373013925e-03 -8.8537800973e-04 1.1373013925e-03 -1.1289869797e+01 -5.8586110930e-04 -8.8537800973e-04 -5.8586110930e-04 -1.4668123132e+01" polarizability="1.3129408751e+01 3.2470432657e-03 -2.4111863912e-03 3.2470432657e-03 1.3126651394e+01 -1.5954487173e-03 -2.4111863912e-03 -1.5954487173e-03 2.6804598492e+01" charge=0 multiplicity=1 method=wB97M-V basis=def2-svpd config_type=co2 sample_index=7 temperature=300.0 units=atomic
C         0.0170634286       0.0112907432      -0.0042556126  -7.859182911655e-03  -5.200301379042e-03   1.904173269297e-02
O        -0.0063925605      -0.0042299095       1.1823790333   4.094438696635e-03   2.708858116867e-03  -5.120182232961e-02
O        -0.0063925602      -0.0042299094      -1.1791892875   3.754947911186e-03   2.484192059838e-03   3.215601755579e-02
3
Properties=species:S:1:pos:R:3:forces:R:3 energy=-1.884091261242e+02 dipole="4.9713582908e-03 3.2861038956e-02 4.9875544371e-02" quadrupole="-1.1192709067e+01 4.4939455817e-04 3.0098965143e-04 4.4939455817e-04 -1.1189805856e+01 1.9895302390e-03 3.0098965143e-04 1.9895302390e-03 -1.4601274618e+01" polarizability="1.2820950642e+01 1.3026970443e-03 8.1250566717e-04 1.3026970443e-03 1.2829359701e+01 5.3706434431e-03 8.1250566717e-04 5.3706434431e-03 2.5780356460e+01" charge=0 multiplicity=1 method=wB97M-V basis=def2-svpd config_type=co2 sample_index=8 temperature=300.0 units=atomic
C         0.0033971154       0.0224554087       0.0072299480  -1.293781507162e-03  -8.552244651766e-03  -3.887187473031e-02
O        -0.0012726789      -0.0084125859       1.1543716197   5.723749664157e-04   3.787698291557e-03   2.908920509933e-02
O        -0.0012726788      -0.0084125855      -1.1597907450   7.184982530070e-04   4.752307898632e-03   9.792445974883e-03
3
Properties=species:S:1:pos:R:3:forces:R:3 energy=-1.884014491106e+02 dipole="3.9537574475e-02 -2.3566143849e-03 2.1172957081e-01" quadrupole="-1.1143754690e+01 -2.5118654310e-04 9.9916238325e-03 -2.5118654310e-04 -1.1147955079e+01 -5.9553187047e-04 9.9916238325e-03 -5.9553187047e-04 -1.4557424950e+01" polarizability="1.2719193333e+01 -7.3473782813e-04 2.6908382939e-02 -7.3473782813e-04 1.2706915828e+01 -1.6038667996e-03 2.6908382939e-02 -1.6038667996e-03 2.5276395011e+01" charge=0 multiplicity=1 method=wB97M-V basis=def2-svpd config_type=co2 sample_index=9 temperature=300.0 units=atomic
C         0.0268025560      -0.0015975375       0.0303833955  -7.990190861309e-03   4.762178571543e-04  -1.792381655021e-01
O        -0.0100411802       0.0005984937       1.1346720027   1.248947309935e-03  -7.404977335295e-05   1.387468903791e-01
O        -0.0100411798       0.0005984937      -1.1574455313   6.724763889155e-03  -4.005772965734e-04   4.052694529248e-02
3
Properties=species:S:1:pos:R:3:forces:R:3 energy=-1.884022906205e+02 dipole="6.2182996816e-02 9.9716254025e-02 1.1113200614e-01" quadrupole="-1.1112369166e+01 1.6565472875e-02 8.1813788233e-03 1.6565472875e-02 -1.1096132607e+01 1.3120599741e-02 8.1813788233e-03 1.3120599741e-02 -1.4550503766e+01" polarizability="1.2644684675e+01 4.8481776743e-02 2.1951320212e-02 4.8481776743e-02 1.2692189713e+01 3.5201795368e-02 2.1951320212e-02 3.5201795368e-02 2.5033983397e+01" charge=0 multiplicity=1 method=wB97M-V basis=def2-svpd config_type=co2 sample_index=10 temperature=300.0 units=atomic
C         0.0419699659       0.0673043387       0.0158955393  -1.252888543636e-02  -2.009413150926e-02  -9.646594228390e-02
O        -0.0157234254      -0.0252145725       1.1292227788   3.914850801924e-03   6.307857042607e-03   1.069442694882e-01
O        -0.0157234247      -0.0252145715      -1.1411370992   8.577825787899e-03   1.378303860082e-02  -1.045531119147e-02
3
Properties=species:S:1:pos:R:3:forces:R:3 energy=-1.883926324810e+02 dipole="-1.3183258779e-02 -2.0845980332e-02 2.8163460529e-01" quadrupole="-1.1091210993e+01 7.2166540284e-04 -4.3385763620e-03 7.2166540284e-04 -1.1090525989e+01 -6.8603822280e-03 -4.3385763620e-03 -6.8603822280e-03 -1.4506870576e+01" polarizability="1.2556177404e+01 2.1337450604e-03 -1.1619265921e-02 2.1337450604e-03 1.2558200926e+01 -1.8372876430e-02 -1.1619265921e-02 -1.8372876430e-02 2.4685804643e+01" charge=0 multiplicity=1 method=wB97M-V basis=def2-svpd config_type=co2 sample_index=11 temperature=300.0 units=atomic
C        -0.0088376420      -0.0139745108       0.0398808502   1.769179652916e-03   2.797595934394e-03  -2.621311927329e-01
O         0.0033108915       0.0052353432       1.1180625992   4.827487309962e-04   7.625365377654e-04   2.271917328744e-01
O         0.0033108914       0.0052353430      -1.1479548367  -2.244436557588e-03  -3.549367466145e-03   3.498647606432e-02
3
Properties=species:S:1:pos:R:3:forces:R:3 energy=-1.884015337233e+02 dipole="-1.1476396167e-01 6.1862636921e-02 -1.6777327773e-01" quadrupole="-1.1172874310e+01 -1.9771928884e-02 2.3666051506e-02 -1.9771928884e-02 -1.1198898422e+01 -1.2756371853e-02 2.3666051506e-02 -1.2756371853e-02 -1.4608002674e+01" polarizability="1.2996835852e+01 -5.7166793559e-02 6.4323968356e-02 -5.7166793559e-02 1.2921603944e+01 -3.4673136553e-02 6.4323968356e-02 -3.4673136553e-02 2.5873051814e+01" charge=0 multiplicity=1 method=wB97M-V basis=def2-svpd config_type=co2 sample_index=12 temperature=300.0 units=atomic
C        -0.0790930981       0.0426331568      -0.0245828693   2.908167397769e-02  -1.567524457893e-02   1.282173486067e-01
O         0.0296310564      -0.0159718800       1.1635308904  -2.015862978266e-02   1.084658320311e-02  -5.023709248845e-02
O         0.0296310552      -0.0159718794      -1.1451050799  -8.935581846469e-03   4.792499672460e-03  -7.800300170250e-02
3
Properties=species:S:1:pos:R:3:forces:R:3 energy=-1.884065090955e+02 dipole="-4.8585109702e-03 3.7341411597e-02 5.3665729666e-02" quadrupole="-1.1313626311e+01 -5.2815666049e-04 -3.3401980435e-04 -5.2815666049e-04 -1.1309635694e+01 2.5671065689e-03 -3.3401980435e-04 2.5671065689e-03 -1.4682606255e+01" polarizability="1.3198525867e+01 -1.5028874889e-03 -9.1124964596e-04 -1.5028874889e-03 1.3209876425e+01 7.0042143116e-03 -9.1124964596e-04 7.0042143116e-03 2.7048569102e+01" charge=0 multiplicity=1 method=wB97M-V basis=def2-svpd config_type=co2 sample_index=13 temperature=300.0 units=atomic
C        -0.0034119544       0.0262237756       0.0080386361   1.619655057225e-03  -1.244899813292e-02  -3.439858134530e-02
O         0.0012782381      -0.0098243487       1.1831682166  -7.480499808711e-04   5.753411471644e-03  -3.466089717226e-02
O         0.0012782381      -0.0098243483      -1.1891934854  -8.691241001277e-04   6.683996304006e-03   6.906269469571e-02
3
Properties=species:S:1:pos:R:3:forces:R:3 energy=-1.884059971330e+02 dipole="-2.9881672440e-02 3.6248524827e-02 -9.0003980650e-02" quadrupole="-1.1304263333e+01 -3.1441251881e-03 3.4358095965e-03 -3.1441251881e-03 -1.1303041150e+01 -4.1678670326e-03 3.4358095965e-03 -4.1678670326e-03 -1.4676694654e+01" polarizability="1.3187177257e+01 -8.9587203158e-03 9.3753660302e-03 -8.9587203158e-03 1.3190658285e+01 -1.1372966347e-02 9.3753660302e-03 -1.1372966347e-02 2.6965358520e+01" charge=0 multiplicity=1 method=wB97M-V basis=def2-svpd config_type=co2 sample_index=14 temperature=300.0 units=atomic
C        -0.0209616148       0.0254279732      -0.0134621346   9.764216591270e-03  -1.184482734060e-02   5.846373991221e-02
O         0.0078529582      -0.0095262131       1.1892078092  -5.511559425829e-03   6.687109044684e-03  -7.620735004602e-02
O         0.0078529578      -0.0095262127      -1.1791174196  -4.239835031124e-03   5.144576242482e-03   1.773600464784e-02
3
Properties=species:S:1:pos:R:3:forces:R:3 energy=-1.884028488268e+02 dipole="3.5715876477e-02 -6.6437104988e-02 -7.1561239563e-02" quadrupole="-1.1072316938e+01 -6.1875160654e-03 -2.9647903058e-03 -6.1875160654e-03 -1.1064130743e+01 5.5156431009e-03 -2.9647903058e-03 5.5156431009e-03 -1.4516360778e+01" polarizability="1.2475147532e+01 -1.8261411128e-02 -7.8827267335e-03 -1.8261411128e-02 1.2499289704e+01 1.4663940818e-02 -7.8827267335e-03 1.4663940818e-02 2.4608206620e+01" charge=0 multiplicity=1 method=wB97M-V basis=def2-svpd config_type=co2 sample_index=15 temperature=300.0 units=atomic
C         0.0238144755      -0.0442994107      -0.0100891504  -6.111728899155e-03   1.136993576557e-02   6.649437697745e-02
O        -0.0089217401       0.0165961173       1.1313427178   3.968997365810e-03  -7.400804397274e-03   4.995784095564e-02
O        -0.0089217397       0.0165961167      -1.1237805092   2.112987703812e-03  -3.946824374698e-03  -1.164690409373e-01
3
Properties=species:S:1:pos:R:3:forces:R:3 energy=-1.883992239245e+02 dipole="-1.7547532965e-02 -1.8151597770e-02 1.9044620702e-01" quadrupole="-1.1079647230e+01 8.3162675357e-04 -3.8829979126e-03 8.3162675357e-04 -1.1079590904e+01 -4.0166701084e-03 -3.8829979126e-03 -4.0166701084e-03 -1.4510529091e+01" polarizability="1.2498694331e+01 2.4583829879e-03 -1.0348967827e-02 2.4583829879e-03 1.2498860670e+01 -1.0705223382e-02 -1.0348967827e-02 -1.0705223382e-02 2.4629530308e+01" charge=0 multiplicity=1 method=wB97M-V basis=def2-svpd config_type=co2 sample_index=16 temperature=300.0 units=atomic
C        -0.0117150116      -0.0121182967       0.0268623367   2.715490214455e-03   2.808971884710e-03  -1.776655822958e-01
O         0.0043888554       0.0045399402       1.1205126848  -1.313782621433e-04  -1.359510815240e-04   1.776136229432e-01
O         0.0043888552       0.0045399400      -1.1406470435  -2.575452338098e-03  -2.664142935939e-03   8.889974539095e-05
3
Properties=species:S:1:pos:R:3:forces:R:3 energy=-1.884041057969e+02 dipole="-1.9095611184e-02 -1.3194512088e-01 9.4299608765e-02" quadrupole="-1.1234292265e+01 7.1007967641e-03 -2.2372558439e-03 7.1007967641e-03 -1.1186249333e+01 -1.5459576399e-02 -2.2372558439e-03 -1.5459576399e-02 -1.4631678027e+01" polarizability="1.2963004792e+01 2.0431743049e-02 -6.0909588719e-03 2.0431743049e-02 1.3101212192e+01 -4.2084322008e-02 -6.0909588719e-03 -4.2084322008e-02 2.6159293196e+01" charge=0 multiplicity=1 method=wB97M-V basis=def2-svpd config_type=co2 sample_index=17 temperature=300.0 units=atomic
C        -0.0132274625      -0.0914036967       0.0139093844   5.374300573921e-03   3.713870096908e-02  -6.873341301632e-02
O         0.0049554727       0.0342430396       1.1550170203  -2.182014150406e-03  -1.516188325682e-02   2.892635883393e-02
O         0.0049554725       0.0342430382      -1.1654426413  -3.173093359015e-03  -2.199392080505e-02   3.982312675138e-02
3
Properties=species:S:1:pos:R:3:forces:R:3 energy=-1.883970175244e+02 dipole="-5.5048702724e-02 -4.5238364116e-02 -1.9074402968e-01" quadrupole="-1.1060553965e+01 6.4733654263e-03 1.2159304152e-02 6.4733654263e-03 -1.1063112184e+01 9.9921254492e-03 1.2159304152e-02 9.9921254492e-03 -1.4502240134e+01" polarizability="1.2484527714e+01 1.9156239520e-02 3.2359438939e-02 1.9156239520e-02 1.2476962464e+01 2.6592754099e-02 3.2359438939e-02 2.6592754099e-02 2.4503448490e+01" charge=0 multiplicity=1 method=wB97M-V basis=def2-svpd config_type=co2 sample_index=18 temperature=300.0 units=atomic
C        -0.0366885297      -0.0301500352      -0.0268637600   7.904815513948e-03   6.495732801103e-03   1.809342760773e-01
O         0.0137448136       0.0112952636       1.1360292835  -7.865307640507e-03  -6.460506085652e-03   8.051515832921e-03
O         0.0137448131       0.0112952632      -1.1158938568  -1.587467987585e-05  -8.991819763993e-06  -1.890214246290e-01
3
Properties=species:S:1:pos:R:3:forces:R:3 energy=-1.883974329714e+02 dipole="3.0883474877e-02 5.9384487744e-02 2.7858564771e-01" quadrupole="-1.1210525247e+01 5.1036973855e-03 1.0572143098e-02 5.1036973855e-03 -1.1203364956e+01 2.0329364151e-02 1.0572143098e-02 2.0329364151e-02 -1.4593633514e+01" polarizability="1.2934300325e+01 1.4803965453e-02 2.8774331929e-02 1.4803965453e-02 1.2955061897e+01 5.5329574440e-02 2.8774331929e-02 5.5329574440e-02 2.5885499894e+01" charge=0 multiplicity=1 method=wB97M-V basis=def2-svpd config_type=co2 sample_index=19 temperature=300.0 units=atomic
C         0.0212880738       0.0409344866       0.0407380586  -7.048534524750e-03  -1.355453629779e-02  -2.157098981830e-01
O        -0.0079752612      -0.0153354984       1.1450200423   9.608081170831e-04   1.861330131145e-03   1.301681566784e-01
O        -0.0079752608      -0.0153354978      -1.1755547912   6.067871974807e-03   1.167668983370e-02   8.557288454574e-02
3
Properties=species:S:1:pos:R:3:forces:R:3 energy=-1.884060513181e+02 dipole="-5.8730959720e-03 -3.8034460705e-02 -1.5107445582e-01" quadrupole="-1.1241398059e+01 6.2888412293e-04 1.1007186506e-03 6.2888412293e-04 -1.1237421811e+01 7.1283106329e-03 1.1007186506e-03 7.1283106329e-03 -1.4628803759e+01" polarizability="1.2983481381e+01 1.8113552699e-03 2.9907895642e-03 1.8113552699e-03 1.2994926588e+01 1.9368371149e-02 2.9907895642e-03 1.9368371149e-02 2.6255764520e+01" charge=0 multiplicity=1 method=wB97M-V basis=def2-svpd config_type=co2 sample_index=20 temperature=300.0 units=atomic
C        -0.0040612469      -0.0263011534      -0.0221990308   1.644620698616e-03   1.065135710762e-02   1.098121206603e-01
O         0.0015214859       0.0098533371       1.1768665969  -1.061714193747e-03  -6.879848679997e-03  -6.542325251787e-02
O         0.0015214859       0.0098533367      -1.1602275658  -5.790342928680e-04  -3.756729616748e-03  -4.440553297450e-02
3
Properties=species:S:1:pos:R:3:forces:R:3 energy=-1.884027090457e+02 dipole="6.9681742901e-02 4.7114304417e-02 1.8204226589e-01" quadrupole="-1.1160637472e+01 8.9701580850e-03 1.5319892474e-02 8.9701580850e-03 -1.1167840598e+01 1.0357998614e-02 1.5319892474e-02 1.0357998614e-02 -1.4580069738e+01" polarizability="1.2819757751e+01 2.6101239029e-02 4.1389890309e-02 2.6101239029e-02 1.2798808508e+01 2.7985130753e-02 4.1389890309e-02 2.7985130753e-02 2.5534795116e+01" charge=0 multiplicity=1 method=wB97M-V basis=def2-svpd config_type=co2 sample_index=21 temperature=300.0 units=atomic
C         0.0475440559       0.0321458176       0.0263373994  -1.584670667918e-02  -1.071356249039e-02  -1.474591358203e-01
O        -0.0178116756      -0.0120429539       1.1401148735   3.970170270736e-03   2.674909194493e-03   1.057365400287e-01
O        -0.0178116748      -0.0120429534      -1.1598557717   1.185639318920e-02   8.009396599224e-03   4.174975285133e-02
3
Properties=species:S:1:pos:R:3:forces:R:3 energy=-1.884002065718e+02 dipole="3.0016338203e-02 1.0283797289e-01 2.1641211029e-01" quadrupole="-1.1249493426e+01 8.7591263191e-03 8.1277762006e-03 8.7591263191e-03 -1.1222038207e+01 2.7847286938e-02 8.1277762006e-03 2.7847286938e-02 -1.4630211135e+01" polarizability="1.3039026079e+01 2.5210448317e-02 2.2187550206e-02 2.5210448317e-02 1.3118029432e+01 7.6018681216e-02 2.2187550206e-02 7.6018681216e-02 2.6304985790e+01" charge=0 multiplicity=1 method=wB97M-V basis=def2-svpd config_type=co2 sample_index=22 temperature=300.0 units=atomic
C         0.0208794242       0.0715373164       0.0320308501  -8.143477090383e-03  -2.790325725903e-02  -1.557596798805e-01
O        -0.0078221667      -0.0268003948       1.1547970266   2.293219749181e-03   7.916416848057e-03   7.235564429006e-02
O        -0.0078221663      -0.0268003937      -1.1788053864   5.822833042664e-03   1.999094582491e-02   8.341743984010e-02
3
Properties=species:S:1:pos:R:3:forces:R:3 energy=-1.884060538140e+02 dipole="3.1127197609e-02 -3.9447748862e-02 1.4461772080e-01" quadrupole="-1.1190017406e+01 -3.3798138553e-03 5.4698707876e-03 -3.3798138553e-03 -1.1188400673e+01 -6.9320346902e-03 5.4698707876e-03 -6.9320346902e-03 -1.4596054889e+01" polarizability="1.2838814964e+01 -9.8054346005e-03 1.4787595221e-02 -9.8054346005e-03 1.2843502005e+01 -1.8740423021e-02 1.4787595221e-02 -1.8740423021e-02 2.5752575104e+01" charge=0 multiplicity=1 method=wB97M-V basis=def2-svpd config_type=co2 sample_index=23 temperature=300.0 units=atomic
C         0.0212939033      -0.0269860378       0.0209845945  -7.747427267934e-03   9.818648592952e-03  -1.134190164690e-01
O        -0.0079774451       0.0101099189       1.1485367282   2.523218322112e-03  -3.200261994631e-03   7.253327354641e-02
O        -0.0079774448       0.0101099185      -1.1642654924   5.205290200575e-03  -6.598283134640e-03   4.090202035731e-02
3
Properties=species:S:1:pos:R:3:forces:R:3 energy=-1.884022162039e+02 dipole="-4.5793057467e-03 -3.4441610896e-02 -1.8996064046e-01" quadrupole="-1.1317724835e+01 4.6026484090e-04 1.1176128248e-03 4.6026484090e-04 -1.1314324467e+01 8.4056498077e-03 1.1176128248e-03 8.4056498077e-03 -1.4674737025e+01" polarizability="1.3229596389e+01 1.3116082193e-03 3.0582075863e-03 1.3116082193e-03 1.3239283947e+01 2.3001336048e-02 3.0582075863e-03 2.3001336048e-02 2.7050644790e+01" charge=0 multiplicity=1 method=wB97M-V basis=def2-svpd config_type=co2 sample_index=24 temperature=300.0 units=atomic
C        -0.0032240006      -0.0242484414      -0.0285134960   1.457417745811e-03   1.096183004524e-02   1.223922393506e-01
O         0.0012078240       0.0090843190       1.1978902119  -9.325285234345e-04  -7.016190923800e-03  -1.060499583672e-01
O         0.0012078240       0.0090843186      -1.1765182453  -5.227656759320e-04  -3.937076947993e-03  -1.634728245813e-02
3
Properties=species:S:1:pos:R:3:forces:R:3 energy=-1.884055863443e+02 dipole="-3.6918578404e-02 5.3260672793e-02 -1.4910264768e-01" quadrupole="-1.1225242963e+01 -5.5076845979e-03 6.7975285295e-03 -5.5076845979e-03 -1.1221114357e+01 -9.8065396104e-03 6.7975285295e-03 -9.8065396104e-03 -1.4621020921e+01" polarizability="1.2955804484e+01 -1.5889140430e-02 1.8454364462e-02 -1.5889140430e-02 1.2967708598e+01 -2.6622972662e-02 1.8454364462e-02 -2.6622972662e-02 2.6119228766e+01" charge=0 multiplicity=1 method=wB97M-V basis=def2-svpd config_type=co2 sample_index=25 temperature=300.0 units=atomic
C        -0.0254736111       0.0367499464      -0.0218576212   1.004104741490e-02  -1.448643854120e-02   1.104822890864e-01
O         0.0095433107      -0.0137678225       1.1726095921  -6.543254763031e-03   9.444954879831e-03  -5.839554515014e-02
O         0.0095433103      -0.0137678219      -1.1562264605  -3.474681106644e-03   5.020990002760e-03  -5.210051653549e-02
3
Properties=species:S:1:pos:R:3:forces:R:3 energy=-1.884058222282e+02 dipole="-3.9882924777e-02 -8.0037641248e-02 8.4932551615e-02" quadrupole="-1.1274890503e+01 9.1611041399e-03 -4.2810138219e-03 9.1611041399e-03 -1.1261069491e+01 -8.5911427965e-03 -4.2810138219e-03 -8.5911427965e-03 -1.4660100478e+01" polarizability="1.3107497560e+01 2.6203386108e-02 -1.1670750755e-02 2.6203386108e-02 1.3147015618e+01 -2.3420430440e-02 -1.1670750755e-02 -2.3420430440e-02 2.6654694555e+01" charge=0 multiplicity=1 method=wB97M-V basis=def2-svpd config_type=co2 sample_index=26 temperature=300.0 units=atomic
C        -0.0278410443      -0.0558734984       0.0126344163   1.239549473035e-02   2.487815730078e-02  -5.768016315973e-02
O         0.0104302344       0.0209321777       1.1703077241  -5.334713363700e-03  -1.073214429473e-02  -3.156328321220e-03
O         0.0104302340       0.0209321768      -1.1797777076  -7.033291140418e-03  -1.413654590563e-02   6.084819301060e-02
3
Properties=species:S:1:pos:R:3:forces:R:3 energy=-1.884043881187e+02 dipole="1.2520912705e-01 3.9588547360e-02 1.4873151061e-02" quadrupole="-1.1239957714e+01 1.4294310886e-02 2.3655722418e-03 1.4294310886e-02 -1.1280651946e+01 7.4793820597e-04 2.3655722418e-03 7.4793820597e-04 -1.4667736113e+01" polarizability="1.3239730370e+01 4.0825633846e-02 6.4643511635e-03 4.0825633846e-02 1.3123528606e+01 2.0439588930e-03 6.4643511635e-03 2.0439588930e-03 2.6694192491e+01" charge=0 multiplicity=1 method=wB97M-V basis=def2-svpd config_type=co2 sample_index=27 temperature=300.0 units=atomic
C         0.0876887036       0.0277238702       0.0022232616  -3.964883426156e-02  -1.253334235284e-02  -9.969549453541e-03
O        -0.0328512726      -0.0103863369       1.1716649697   1.937215104517e-02   6.105883705233e-03  -2.846888656731e-02
O        -0.0328512712      -0.0103863364      -1.1733313904   2.029380008837e-02   6.397673157193e-03   3.844152767126e-02
3
Properties=species:S:1:pos:R:3:forces:R:3 energy=-1.884071980278e+02 dipole="2.8285004563e-03 1.2518909077e-02 -1.0755262369e-01" quadrupole="-1.1152249440e+01 9.5565609817e-05 -3.6318621606e-04 9.5565609817e-05 -1.1151847924e+01 -1.6074719250e-03 -3.6318621606e-04 -1.6074719250e-03 -1.4569788670e+01" polarizability="1.2701046788e+01 2.7898261186e-04 -9.7616486729e-04 2.7898261186e-04 1.2702217787e+01 -4.3204898947e-03 -9.7616486729e-04 -4.3204898947e-03 2.5363663891e+01" charge=0 multiplicity=1 method=wB97M-V basis=def2-svpd config_type=co2 sample_index=28 temperature=300.0 units=atomic
C         0.0019159953       0.0084801818      -0.0154287983  -6.412860433968e-04  -2.838345546516e-03   8.948584030607e-02
O        -0.0007177992      -0.0031769744       1.1535796749   4.167598572354e-04   1.844731705757e-03  -9.356824643303e-03
O        -0.0007177992      -0.0031769742      -1.1420151942   2.228162467985e-04   9.864046200755e-04  -8.014110852326e-02
3
Properties=species:S:1:pos:R:3:forces:R:3 energy=-1.884026219613e+02 dipole="-8.9283809417e-02 3.1205334887e-02 1.6450063356e-01" quadrupole="-1.1134042664e+01 -7.5509390411e-03 -1.7610584404e-02 -7.5509390411e-03 -1.1153011622e+01 6.1544811047e-03 -1.7610584404e-02 6.1544811047e-03 -1.4569217753e+01" polarizability="1.2785166197e+01 -2.2019940334e-02 -4.7463779766e-02 -2.2019940334e-02 1.2729873757e+01 1.6588975387e-02 -4.7463779766e-02 1.6588975387e-02 2.5354443771e+01" charge=0 multiplicity=1 method=wB97M-V basis=def2-svpd config_type=co2 sample_index=29 temperature=300.0 units=atomic
C        -0.0606807242       0.0212076867       0.0236987980   1.943417354060e-02  -6.790788549678e-03  -1.366815880277e-01
O         0.0227331335      -0.0079451453       1.1360202382  -5.009235016022e-03   1.736308620701e-03   1.098907330087e-01
O         0.0227331326      -0.0079451450      -1.1537834027  -1.441702565324e-02   5.027626753748e-03   2.681535234156e-02
3
Properties=species:S:1:pos:R:3:forces:R:3 energy=-1.884029843544e+02 dipole="-5.2414468849e-02 4.2719581896e-02 -1.9885465682e-01" quadrupole="-1.1202996429e+01 -6.2202952359e-03 1.2777733244e-02 -6.2202952359e-03 -1.1205559067e+01 -1.0414170934e-02 1.2777733244e-02 -1.0414170934e-02 -1.4603295675e+01" polarizability="1.2919504802e+01 -1.8011372343e-02 3.4669668796e-02 -1.8011372343e-02 1.2912088374e+01 -2.8256880903e-02 3.4669668796e-02 -2.8256880903e-02 2.5906674633e+01" charge=0 multiplicity=1 method=wB97M-V basis=def2-svpd config_type=co2 sample_index=30 temperature=300.0 units=atomic
C        -0.0360476165       0.0293798787      -0.0290272733   1.307883294299e-02  -1.065935060345e-02   1.525836400622e-01
O         0.0135047050      -0.0110067359       1.1706521322  -9.565995277403e-03   7.794001426706e-03  -6.411699904261e-02
O         0.0135047044      -0.0110067354      -1.1488950693  -3.490265904443e-03   2.840982378948e-03  -8.848793438110e-02
3