3
Properties=species:S:1:pos:R:3:forces:R:3 energy=-7.634525024061e+01 dipole="-8.6042345523e-16 2.3075492695e-02 -7.4279948710e-01" quadrupole="-5.8733079358e+00 -6.6180441532e-16 -4.8095929738e-16 -6.6180441532e-16 -3.3130195479e+00 -6.6202042343e-02 -4.8095929738e-16 -6.6202042343e-02 -4.8939517823e+00" polarizability="9.2695345515e+00 -6.1221015235e-12 -1.2879368098e-12 -6.1221015235e-12 1.0257847787e+01 -3.0629529329e-01 -1.2879368098e-12 -3.0629529329e-01 9.6042937882e+00" dipole_derivatives="-6.8261383519e-01 -7.3691053259e-12 2.2759572005e-11 9.3289162748e-13 -5.4866098663e-01 1.5038633491e-03 4.6087634282e-13 -2.3595221682e-02 -3.9421332764e-01 3.3808580178e-01 -5.8633653488e-12 1.9206858326e-11 1.3527792422e-13 2.8000501975e-01 5.6057116008e-02 4.7698695429e-13 5.8600142894e-02 2.0080583113e-01 3.4378782594e-01 3.3514857556e-12 -1.7208456882e-12 -9.8566338741e-13 2.7061707619e-01 -6.2769527889e-02 -2.0821339290e-12 -3.5205042504e-02 1.9508121134e-01" charge=0 multiplicity=1 method=wB97M-V basis=def2-svpd config_type=h2o sample_index=0 temperature=300.0 units=atomic
O         0.0000000000      -0.0027738498       0.1140855832  -4.379773312674e-16   4.986673113151e-02  -5.840511993549e-04
H         0.0000000000       0.7974330611      -0.4834262901  -7.727337386114e-17  -2.865044391141e-02   1.902833329649e-02
H         0.0000000000      -0.7524143814      -0.4488183786   1.386168383975e-16  -2.121520890933e-02  -1.845592444553e-02
3
Properties=species:S:1:pos:R:3:forces:R:3 energy=-7.634543510512e+01 dipole="-1.7930081826e-15 1.2783040930e-02 -7.4861428923e-01" quadrupole="-5.9102596987e+00 2.2712297004e-15 2.4272372526e-15 2.2712297004e-15 -3.2871699792e+00 -3.8186416777e-02 2.4272372526e-15 -3.8186416777e-02 -4.8969567415e+00" polarizability="9.3789861803e+00 -1.0849675077e-11 7.9728710446e-12 -1.0849675077e-11 1.0641457068e+01 -1.8001038729e-01 7.9728710446e-12 -1.8001038729e-01 9.8474963288e+00" dipole_derivatives="-6.7338011677e-01 -2.7235158573e-12 -8.7152507433e-12 -1.5835859526e-12 -5.4085854121e-01 -1.0262722132e-03 -7.5706546494e-13 -1.3380930970e-02 -3.8875390162e-01 3.3474093663e-01 -5.6864235543e-12 2.9976021665e-12 3.6783770198e-13 2.7382477122e-01 5.8379183959e-02 8.0105051986e-14 5.3394966610e-02 1.9671354265e-01 3.3787389460e-01 -1.0417014473e-11 8.7152507433e-12 -6.7908430305e-13 2.6894625620e-01 -6.1970217727e-02 2.9951718374e-13 -4.0121948408e-02 1.9367507315e-01" charge=0 multiplicity=1 method=wB97M-V basis=def2-svpd config_type=h2o sample_index=1 temperature=300.0 units=atomic
O         0.0000000000      -0.0015473215       0.1155250593  -5.366606759189e-16   2.450679011846e-02  -2.368658035607e-02
H        -0.0000000000       0.8020040644      -0.4874476073   1.317916206915e-16  -3.240161174267e-02   2.108262461907e-02
H         0.0000000000      -0.7766098495      -0.4678330499   1.150046967123e-16   7.898058481073e-03   2.594066005297e-03
3
Properties=species:S:1:pos:R:3:forces:R:3 energy=-7.633739342995e+01 dipole="-5.9847582208e-16 -3.1259684679e-02 -6.5724538364e-01" quadrupole="-5.7872468015e+00 6.9352378677e-16 2.0079350707e-15 6.9352378677e-16 -3.0845812800e+00 6.9953791378e-02 2.0079350707e-15 6.9953791378e-02 -5.1205868467e+00" polarizability="9.0478228822e+00 1.3001147823e-12 -3.7404601670e-12 1.3001147823e-12 9.5053383259e+00 2.7555052227e-01 -3.7404601670e-12 2.7555052227e-01 8.9642380948e+00" dipole_derivatives="-7.3601117568e-01 -4.7184478547e-12 -8.5487172896e-12 -1.1578150056e-12 -6.3269401394e-01 -7.8916186865e-03 7.5357836777e-13 2.8836322005e-02 -4.5913005936e-01 3.6987813189e-01 1.0200174039e-12 -3.3306690739e-13 -5.3327367279e-13 3.0954957823e-01 6.8184275169e-02 -2.9985480954e-13 1.4435495205e-02 2.2695963349e-01 3.6554975335e-01 -4.2327252814e-12 6.9944050551e-12 -4.9394416979e-14 3.2475629247e-01 -5.8127580645e-02 -5.2659509965e-13 -4.2847947016e-02 2.3514452348e-01" charge=0 multiplicity=1 method=wB97M-V basis=def2-svpd config_type=h2o sample_index=2 temperature=300.0 units=atomic
O         0.0000000000       0.0031355084       0.1024198845  -3.090370165953e-16  -8.309385893099e-02   8.007883949541e-02
H        -0.0000000000       0.7594364203      -0.3539134244   1.427894284522e-16   8.090526450256e-02  -6.568778248411e-02
H        -0.0000000000      -0.8089707537      -0.3915812218  -2.249245158611e-16   2.185668233145e-03  -1.438312823063e-02
3
Properties=species:S:1:pos:R:3:forces:R:3 energy=-7.634228175895e+01 dipole="-1.1968873691e-15 1.0957789291e-03 -8.2162018622e-01" quadrupole="-5.9209569573e+00 3.2163494378e-15 2.1850346226e-15 3.2163494378e-15 -3.6664452342e+00 -4.4139704333e-03 2.1850346226e-15 -4.4139704333e-03 -4.5912561115e+00" polarizability="9.4000583861e+00 3.4594045488e-13 8.7306090455e-14 3.4594045488e-13 1.0592366144e+01 -2.1057885405e-02 8.7306090455e-14 -2.1057885405e-02 1.0227525363e+01" dipole_derivatives="-6.4339190641e-01 6.9440980743e-12 2.4424906542e-11 -5.9322945361e-13 -4.8266803163e-01 -2.9177827698e-04 7.4512763503e-13 -1.2056381155e-03 -3.5012953604e-01 3.2099420460e-01 -7.9025327948e-12 1.0658141036e-11 1.7866770560e-12 2.4272453964e-01 5.5120787063e-02 2.2494308240e-13 7.1848436907e-02 1.7569361586e-01 3.2150800094e-01 -4.8442153067e-13 6.9944050551e-12 2.9056583225e-13 2.4227835100e-01 -5.5480146746e-02 -8.7983612197e-14 -7.0648882593e-02 1.7546465638e-01" charge=0 multiplicity=1 method=wB97M-V basis=def2-svpd config_type=h2o sample_index=3 temperature=300.0 units=atomic
O        -0.0000000000      -0.0001375828       0.1253453196   4.435699150989e-16   2.311102318242e-03  -6.156638047566e-02
H         0.0000000000       0.7357616440      -0.5574446670   1.661030946102e-16  -1.372021814258e-02   3.181297921243e-02
H         0.0000000000      -0.7329204476      -0.5550665785  -1.458518513052e-16   1.140896375210e-02   2.975764260165e-02
3
Properties=species:S:1:pos:R:3:forces:R:3 energy=-7.633059220121e+01 dipole="-7.4956789593e-16 -3.1284051671e-02 -8.6960989562e-01" quadrupole="-5.8996410647e+00 2.9510451427e-16 1.9406827613e-15 2.9510451427e-16 -3.9793039915e+00 1.2636494489e-01 1.9406827613e-15 1.2636494489e-01 -4.3473685963e+00" polarizability="9.3389391567e+00 -2.9916643924e-12 5.9021985864e-13 -2.9916643924e-12 1.0305371137e+01 6.7961218827e-01 5.9021985864e-13 6.7961218827e-01 1.0384193450e+01" dipole_derivatives="-6.3117641934e-01 8.9789287117e-12 9.7699626167e-12 1.6458062050e-12 -4.6384034834e-01 -1.4899392617e-02 -4.6318118337e-13 2.9803696773e-02 -3.2776109765e-01 3.2473912097e-01 -1.3319206849e-11 5.8841820305e-12 -1.6820710704e-12 2.2617084393e-01 5.7719162221e-02 -7.5292185740e-13 7.3800758409e-02 1.6103367344e-01 3.0526136400e-01 1.7555401577e-12 1.7597034940e-11 -9.5818141040e-13 2.3531341021e-01 -4.8000328722e-02 1.9620866653e-12 -1.0348454061e-01 1.6756041326e-01" charge=0 multiplicity=1 method=wB97M-V basis=def2-svpd config_type=h2o sample_index=4 temperature=300.0 units=atomic
O        -0.0000000000       0.0055239564       0.1314231363  -5.243770579657e-17  -6.760440056213e-02  -5.689067652131e-02
H         0.0000000000       0.6301000176      -0.5714890487  -8.809735903424e-17   4.836748098568e-02  -5.673438938870e-03
H         0.0000000000      -0.7178418147      -0.6383460492  -1.515532382372e-17   1.923924246159e-02   6.257352493248e-02
3
Properties=species:S:1:pos:R:3:forces:R:3 energy=-7.634449330433e+01 dipole="-1.1258689935e-15 -9.9783428719e-03 -7.9366039391e-01" quadrupole="-5.9102457052e+00 1.5138615759e-15 -2.0777877602e-16 1.5138615759e-15 -3.5221909333e+00 3.2615258732e-02 -2.0777877602e-16 3.2615258732e-02 -4.7101117483e+00" polarizability="9.3704847633e+00 4.1936127505e-13 3.0538869170e-12 4.1936127505e-13 1.0545514292e+01 1.6471331668e-01 3.0538869170e-12 1.6471331668e-01 1.0022400645e+01" dipole_derivatives="-6.5567926670e-01 -2.3592239273e-12 3.8857805862e-12 -1.2030356950e-12 -5.0367030349e-01 1.4186158839e-03 -4.4279450859e-13 1.0284279366e-02 -3.6436737414e-01 3.2917184704e-01 1.6467729957e-11 2.2426505097e-11 -1.0139399609e-12 2.5108519003e-01 5.8277497698e-02 1.9522268588e-12 5.6763955934e-02 1.8164016851e-01 3.2567112355e-01 2.6350449600e-12 1.8374191058e-11 -2.0350529654e-12 2.5473189653e-01 -5.5460836384e-02 1.1209149115e-13 -6.6985582475e-02 1.8393147247e-01" charge=0 multiplicity=1 method=wB97M-V basis=def2-svpd config_type=h2o sample_index=5 temperature=300.0 units=atomic
O        -0.0000000000       0.0014346207       0.1213800114   1.346816630173e-15  -1.962399550797e-02  -4.344217862044e-02
H         0.0000000000       0.7428689039      -0.5160878946   1.617398019458e-16  -4.007747690249e-03   1.352313141304e-02
H         0.0000000000      -0.7651842712      -0.5329366033   1.431864647621e-17   2.363100684781e-02   2.991623676318e-02
