3
Properties=species:S:1:pos:R:3:forces:R:3 energy=-7.634525024061e+01 dipole="-8.6042345523e-16 2.3075492695e-02 -7.4279948710e-01" quadrupole="-5.8733079358e+00 -6.6180441532e-16 -4.8095929738e-16 -6.6180441532e-16 -3.3130195479e+00 -6.6202042343e-02 -4.8095929738e-16 -6.6202042343e-02 -4.8939517823e+00" polarizability="9.2717076302e+00 3.8834864262e-15 -3.8811120994e-15 3.8834864262e-15 1.0258292145e+01 -3.0659095462e-01 -3.8811120994e-15 -3.0659095462e-01 9.6043214465e+00" charge=0 multiplicity=1 method=wB97M-V basis=def2-svpd config_type=h2o sample_index=0 temperature=300.0 units=atomic
O         0.0000000000      -0.0027738498       0.1140855832  -4.379773312674e-16   4.986673113151e-02  -5.840511993549e-04
H         0.0000000000       0.7974330611      -0.4834262901  -7.727337386114e-17  -2.865044391141e-02   1.902833329649e-02
H         0.0000000000      -0.7524143814      -0.4488183786   1.386168383975e-16  -2.121520890933e-02  -1.845592444553e-02
3
Properties=species:S:1:pos:R:3:forces:R:3 energy=-7.634543510512e+01 dipole="-1.7930081826e-15 1.2783040930e-02 -7.4861428923e-01" quadrupole="-5.9102596987e+00 2.2712297004e-15 2.4272372526e-15 2.2712297004e-15 -3.2871699792e+00 -3.8186416777e-02 2.4272372526e-15 -3.8186416777e-02 -4.8969567415e+00" polarizability="9.3813172342e+00 -1.3277749100e-14 -5.6771411569e-15 -1.3277749100e-14 1.0641953139e+01 -1.8030674460e-01 -5.6771411569e-15 -1.8030674460e-01 9.8475356994e+00" charge=0 multiplicity=1 method=wB97M-V basis=def2-svpd config_type=h2o sample_index=1 temperature=300.0 units=atomic
O         0.0000000000      -0.0015473215       0.1155250593  -5.366606759189e-16   2.450679011846e-02  -2.368658035607e-02
H        -0.0000000000       0.8020040644      -0.4874476073   1.317916206915e-16  -3.240161174267e-02   2.108262461907e-02
H         0.0000000000      -0.7766098495      -0.4678330499   1.150046967123e-16   7.898058481073e-03   2.594066005297e-03
3
Properties=species:S:1:pos:R:3:forces:R:3 energy=-7.633739342995e+01 dipole="-5.9847582208e-16 -3.1259684679e-02 -6.5724538364e-01" quadrupole="-5.7872468015e+00 6.9352378677e-16 2.0079350707e-15 6.9352378677e-16 -3.0845812800e+00 6.9953791378e-02 2.0079350707e-15 6.9953791378e-02 -5.1205868467e+00" polarizability="9.0493563310e+00 -2.6441813735e-15 -1.1087061127e-14 -2.6441813735e-15 9.5057177094e+00 2.7581293774e-01 -1.1087061127e-14 2.7581293774e-01 8.9642160148e+00" charge=0 multiplicity=1 method=wB97M-V basis=def2-svpd config_type=h2o sample_index=2 temperature=300.0 units=atomic
O         0.0000000000       0.0031355084       0.1024198845  -3.090370165953e-16  -8.309385893099e-02   8.007883949541e-02
H        -0.0000000000       0.7594364203      -0.3539134244   1.427894284522e-16   8.090526450256e-02  -6.568778248411e-02
H        -0.0000000000      -0.8089707537      -0.3915812218  -2.249245158611e-16   2.185668233145e-03  -1.438312823063e-02
3
Properties=species:S:1:pos:R:3:forces:R:3 energy=-7.634228175895e+01 dipole="-1.1968873691e-15 1.0957789291e-03 -8.2162018622e-01" quadrupole="-5.9209569573e+00 3.2163494378e-15 2.1850346226e-15 3.2163494378e-15 -3.6664452342e+00 -4.4139704333e-03 2.1850346226e-15 -4.4139704333e-03 -4.5912561115e+00" polarizability="9.4022809335e+00 -1.4011186951e-14 -1.7899337896e-15 -1.4011186951e-14 1.0592629346e+01 -2.2280047997e-02 -1.7899337896e-15 -2.2280047997e-02 1.0227581993e+01" charge=0 multiplicity=1 method=wB97M-V basis=def2-svpd config_type=h2o sample_index=3 temperature=300.0 units=atomic
O        -0.0000000000      -0.0001375828       0.1253453196   4.435699150989e-16   2.311102318242e-03  -6.156638047566e-02
H         0.0000000000       0.7357616440      -0.5574446670   1.661030946102e-16  -1.372021814258e-02   3.181297921243e-02
H         0.0000000000      -0.7329204476      -0.5550665785  -1.458518513052e-16   1.140896375210e-02   2.975764260165e-02
3
Properties=species:S:1:pos:R:3:forces:R:3 energy=-7.633059220121e+01 dipole="-7.4956789593e-16 -3.1284051671e-02 -8.6960989562e-01" quadrupole="-5.8996410647e+00 2.9510451427e-16 1.9406827613e-15 2.9510451427e-16 -3.9793039915e+00 1.2636494489e-01 1.9406827613e-15 1.2636494489e-01 -4.3473685963e+00" polarizability="9.3419824911e+00 4.9289650145e-15 -5.6427183165e-15 4.9289650145e-15 1.0306080335e+01 6.7997864973e-01 -5.6427183165e-15 6.7997864973e-01 1.0384955732e+01" charge=0 multiplicity=1 method=wB97M-V basis=def2-svpd config_type=h2o sample_index=4 temperature=300.0 units=atomic
O        -0.0000000000       0.0055239564       0.1314231363  -5.243770579657e-17  -6.760440056213e-02  -5.689067652131e-02
H         0.0000000000       0.6301000176      -0.5714890487  -8.809735903424e-17   4.836748098568e-02  -5.673438938870e-03
H         0.0000000000      -0.7178418147      -0.6383460492  -1.515532382372e-17   1.923924246159e-02   6.257352493248e-02
3
Properties=species:S:1:pos:R:3:forces:R:3 energy=-7.634449330433e+01 dipole="-1.1258689935e-15 -9.9783428719e-03 -7.9366039391e-01" quadrupole="-5.9102457052e+00 1.5138615759e-15 -2.0777877602e-16 1.5138615759e-15 -3.5221909333e+00 3.2615258732e-02 -2.0777877602e-16 3.2615258732e-02 -4.7101117483e+00" polarizability="9.3727436349e+00 -1.4056680642e-15 9.8658499293e-15 -1.4056680642e-15 1.0546016295e+01 1.6502986062e-01 9.8658499293e-15 1.6502986062e-01 1.0022452579e+01" charge=0 multiplicity=1 method=wB97M-V basis=def2-svpd config_type=h2o sample_index=5 temperature=300.0 units=atomic
O        -0.0000000000       0.0014346207       0.1213800114   1.346816630173e-15  -1.962399550797e-02  -4.344217862044e-02
H         0.0000000000       0.7428689039      -0.5160878946   1.617398019458e-16  -4.007747690249e-03   1.352313141304e-02
H         0.0000000000      -0.7651842712      -0.5329366033   1.431864647621e-17   2.363100684781e-02   2.991623676318e-02
3
Properties=species:S:1:pos:R:3:forces:R:3 energy=-7.634139481797e+01 dipole="-1.7606754260e-15 -5.0677717387e-03 -7.1075098297e-01" quadrupole="-5.7660674132e+00 -6.8958759790e-16 1.9911838827e-15 -6.8958759790e-16 -3.3320791662e+00 1.2226949306e-02 1.9911838827e-15 1.2226949306e-02 -4.9301513985e+00" polarizability="8.9656995933e+00 1.5063311531e-14 -1.0188866818e-14 1.5063311531e-14 9.2349909507e+00 5.3519422301e-02 -1.0188866818e-14 5.3519422301e-02 8.8971251013e+00" charge=0 multiplicity=1 method=wB97M-V basis=def2-svpd config_type=h2o sample_index=6 temperature=300.0 units=atomic
O         0.0000000000       0.0006066624       0.1083263808   1.956550567931e-15  -1.485160695120e-02   7.496060535033e-02
H        -0.0000000000       0.7381047939      -0.4166611209  -2.177006629008e-17   5.558693780140e-02  -4.280720472699e-02
H        -0.0000000000      -0.7471754478      -0.4234058612  -5.955103297355e-17  -4.073769308526e-02  -3.216082149955e-02
3
Properties=species:S:1:pos:R:3:forces:R:3 energy=-7.634137699077e+01 dipole="-2.4766460305e-15 1.5016122815e-02 -6.7628174378e-01" quadrupole="-5.9385005943e+00 9.7756652500e-16 1.7479152392e-15 9.7756652500e-16 -2.9148103127e+00 -3.8549341819e-02 1.7479152392e-15 -3.8549341819e-02 -5.1779126478e+00" polarizability="9.4869871460e+00 -8.5716552440e-15 -1.0881683174e-16 -8.5716552440e-15 1.1092440731e+01 -1.6419991303e-01 -1.0881683174e-16 -1.6419991303e-01 9.8158764403e+00" charge=0 multiplicity=1 method=wB97M-V basis=def2-svpd config_type=h2o sample_index=7 temperature=300.0 units=atomic
O         0.0000000000      -0.0015039959       0.1071582412  -1.756970597742e-16   2.429846998035e-02  -7.108874826049e-03
H        -0.0000000000       0.8602117119      -0.4202001476   4.342962500580e-17  -4.827145982218e-02   1.132424906301e-02
H        -0.0000000000      -0.8355133839      -0.4011148522   2.393240436730e-17   2.397416297583e-02  -4.211105411867e-03
3
Properties=species:S:1:pos:R:3:forces:R:3 energy=-7.634307721225e+01 dipole="1.3675720432e-15 -3.0539930936e-02 -6.9468839822e-01" quadrupole="-5.8603658539e+00 1.3101845571e-16 -6.7575493900e-16 1.3101845571e-16 -3.1156126916e+00 7.6816263937e-02 -6.7575493900e-16 7.6816263937e-02 -5.0588324997e+00" polarizability="9.2477701318e+00 1.0994088485e-14 3.6038209892e-15 1.0994088485e-14 1.0198689597e+01 3.3032039642e-01 3.6038209892e-15 3.3032039642e-01 9.4133261578e+00" charge=0 multiplicity=1 method=wB97M-V basis=def2-svpd config_type=h2o sample_index=8 temperature=300.0 units=atomic
O         0.0000000000       0.0033113813       0.1079448806  -3.114373776829e-17  -6.567867455324e-02   2.563459385977e-02
H        -0.0000000000       0.7732718563      -0.3970619627  -6.863642212181e-17   3.310032629161e-02  -3.484657246406e-02
H        -0.0000000000      -0.8256191787      -0.4368695177   1.115353260200e-16   3.257886691972e-02   9.210117086758e-03
3
Properties=species:S:1:pos:R:3:forces:R:3 energy=-7.634440567897e+01 dipole="-1.5308236761e-15 6.6170166938e-03 -8.0250052585e-01" quadrupole="-5.9035491168e+00 -1.2436158970e-15 1.4062739346e-15 -1.2436158970e-15 -3.5818678960e+00 -2.2842667290e-02 1.4062739346e-15 -2.2842667290e-02 -4.6669647886e+00" polarizability="9.3505590635e+00 4.6234817939e-15 -4.9617827914e-15 4.6234817939e-15 1.0449768331e+01 -1.1510539692e-01 -4.9617827914e-15 -1.1510539692e-01 1.0015092416e+01" charge=0 multiplicity=1 method=wB97M-V basis=def2-svpd config_type=h2o sample_index=9 temperature=300.0 units=atomic
O        -0.0000000000      -0.0009246296       0.1224217261  -1.195140208017e-16   1.368767186177e-02  -4.456733772629e-02
H         0.0000000000       0.7504116065      -0.5388530361  -2.075564484558e-16  -1.654382123149e-02   2.814051892396e-02
H         0.0000000000      -0.7349783426      -0.5268530370   7.271260678555e-17   2.856502340180e-03   1.642571981809e-02
3
Properties=species:S:1:pos:R:3:forces:R:3 energy=-7.634487405751e+01 dipole="2.1489701635e-15 -4.9127871846e-03 -8.0432788017e-01" quadrupole="-5.8819312193e+00 4.2854602699e-15 -4.3269186489e-16 4.2854602699e-15 -3.6241486046e+00 1.6051373401e-02 -4.3269186489e-16 1.6051373401e-02 -4.6448786339e+00" polarizability="9.2837003726e+00 -1.3763211238e-14 5.0558902611e-15 -1.3763211238e-14 1.0213720768e+01 8.1722525605e-02 5.0558902611e-15 8.1722525605e-02 9.8757019471e+00" charge=0 multiplicity=1 method=wB97M-V basis=def2-svpd config_type=h2o sample_index=10 temperature=300.0 units=atomic
O        -0.0000000000       0.0007438423       0.1222359161   8.159636928139e-16  -1.060055086593e-02  -3.458344255160e-02
H         0.0000000000       0.7239214282      -0.5271662625  -1.912931509433e-16   4.817377505835e-03   1.269181882138e-02
H         0.0000000000      -0.7351837352      -0.5355718304  -1.795328088622e-16   5.781821906258e-03   2.189122928241e-02
3
Properties=species:S:1:pos:R:3:forces:R:3 energy=-7.634582281347e+01 dipole="1.2809455167e-15 1.3744135889e-02 -7.1440307424e-01" quadrupole="-5.8452746142e+00 2.1883400728e-15 -1.9217720400e-16 2.1883400728e-15 -3.2290556045e+00 -3.6514323372e-02 -1.9217720400e-16 -3.6514323372e-02 -4.9788210764e+00" polarizability="9.1949031720e+00 -1.2643245240e-14 -3.6278963768e-15 -1.2643245240e-14 9.9951899070e+00 -1.5999169459e-01 -3.6278963768e-15 -1.5999169459e-01 9.3563852169e+00" charge=0 multiplicity=1 method=wB97M-V basis=def2-svpd config_type=h2o sample_index=11 temperature=300.0 units=atomic
O         0.0000000000      -0.0015209132       0.1100830855   4.309037053081e-16   3.180242496562e-02   2.307598478501e-02
H        -0.0000000000       0.7919438383      -0.4437260766   3.165522078449e-17  -1.019884397445e-02  -3.022910213535e-04
H        -0.0000000000      -0.7669732113      -0.4244440770  -3.273182438237e-17  -2.160676940175e-02  -2.278075985832e-02
3
Properties=species:S:1:pos:R:3:forces:R:3 energy=-7.634368287568e+01 dipole="-2.5473307574e-15 2.5071248975e-02 -7.8525981555e-01" quadrupole="-5.8717967747e+00 4.1298654125e-16 4.4669503371e-15 4.1298654125e-16 -3.5280863177e+00 -7.9930574507e-02 4.4669503371e-15 -7.9930574507e-02 -4.7209687051e+00" polarizability="9.2587522785e+00 -1.6762596704e-15 -6.3310053601e-15 -1.6762596704e-15 1.0173782508e+01 -3.9226279627e-01 -6.3310053601e-15 -3.9226279627e-01 9.7456017732e+00" charge=0 multiplicity=1 method=wB97M-V basis=def2-svpd config_type=h2o sample_index=12 temperature=300.0 units=atomic
O        -0.0000000000      -0.0034044619       0.1195045825  -1.592436115825e-16   5.654247521369e-02  -1.533323671494e-02
H         0.0000000000       0.7692296125      -0.5306643756   1.545559944307e-16  -2.506371384254e-02   3.122879827431e-02
H         0.0000000000      -0.7141194102      -0.4883445240  -2.727384896179e-16  -3.147411880573e-02  -1.589942950134e-02
3
Properties=species:S:1:pos:R:3:forces:R:3 energy=-7.632953899704e+01 dipole="-2.4943958938e-16 6.4821377661e-02 -6.7749847305e-01" quadrupole="-5.9894278110e+00 1.3288073584e-15 2.4062200901e-15 1.3288073584e-15 -2.8033749348e+00 -1.6961002388e-01 2.4062200901e-15 -1.6961002388e-01 -5.2084622774e+00" polarizability="9.6564031119e+00 -1.0249452254e-14 -1.1062652951e-14 -1.0249452254e-14 1.1862146381e+01 -7.4828374614e-01 -1.1062652951e-14 -7.4828374614e-01 1.0178460133e+01" charge=0 multiplicity=1 method=wB97M-V basis=def2-svpd config_type=h2o sample_index=13 temperature=300.0 units=atomic
O         0.0000000000      -0.0066156243       0.1081804701   8.503809067660e-16   8.887874949823e-02  -1.336387645378e-02
H        -0.0000000000       0.9289749844      -0.4596321336  -2.056761202821e-17  -8.881037992916e-02   3.503728790998e-02
H        -0.0000000000      -0.8224902667      -0.3780330979  -2.343691370369e-16  -7.029892123800e-05  -2.166919124244e-02
3
Properties=species:S:1:pos:R:3:forces:R:3 energy=-7.634126319268e+01 dipole="-3.3846664109e-15 1.1687780874e-02 -6.5674917206e-01" quadrupole="-5.8046914980e+00 -9.4875008321e-16 2.5026149347e-15 -9.4875008321e-16 -3.0612819573e+00 -2.6970541239e-02 2.5026149347e-15 -2.6970541239e-02 -5.1363918151e+00" polarizability="9.0974222251e+00 6.1071868233e-15 -1.4583863697e-14 6.1071868233e-15 9.6550604322e+00 -1.0533442726e-01 -1.4583863697e-14 -1.0533442726e-01 9.0453400704e+00" charge=0 multiplicity=1 method=wB97M-V basis=def2-svpd config_type=h2o sample_index=14 temperature=300.0 units=atomic
O         0.0000000000      -0.0011222313       0.1026609297   7.879178590021e-16   2.943378187880e-02   6.473303290325e-02
H        -0.0000000000       0.8015518917      -0.3818743054  -3.454539544085e-16   1.095483504860e-02  -2.330342219375e-02
H        -0.0000000000      -0.7829620267      -0.3674751806  -1.476240023827e-16  -4.038936353538e-02  -4.142194231523e-02
3
Properties=species:S:1:pos:R:3:forces:R:3 energy=-7.630775905554e+01 dipole="2.4940158260e-15 6.8930350429e-02 -7.4982267968e-01" quadrupole="-5.7171487841e+00 1.4545260578e-15 -1.9269540476e-15 1.4545260578e-15 -3.5258114462e+00 -1.8189253812e-01 -1.9269540476e-15 -1.8189253812e-01 -4.7495407007e+00" polarizability="8.8265204864e+00 -8.2464334368e-15 2.7377099116e-15 -8.2464334368e-15 8.9162372844e+00 -8.2648277129e-01 2.7377099116e-15 -8.2648277129e-01 8.7723537263e+00" charge=0 multiplicity=1 method=wB97M-V basis=def2-svpd config_type=h2o sample_index=15 temperature=300.0 units=atomic
O        -0.0000000000      -0.0085789229       0.1120459249   5.143089023275e-16   2.558627872226e-01   1.643728979148e-01
H         0.0000000000       0.7650121759      -0.5026040403  -1.061816981321e-16  -1.349247580034e-02   2.155352196204e-02
H         0.0000000000      -0.6271110654      -0.3970292219  -5.390255423312e-17  -2.423635188507e-01  -1.859272618792e-01
3
Properties=species:S:1:pos:R:3:forces:R:3 energy=-7.633392872255e+01 dipole="-9.2254422421e-16 1.7062339581e-02 -6.1764243641e-01" quadrupole="-5.7641751860e+00 -6.8104459555e-16 2.8933758268e-15 -6.8104459555e-16 -2.9908286041e+00 -3.5706270363e-02 2.8933758268e-15 -3.5706270363e-02 -5.2125563207e+00" polarizability="8.9999162738e+00 1.2894938531e-14 -1.6583737597e-14 1.2894938531e-14 9.3112158867e+00 -1.2809357235e-01 -1.6583737597e-14 -1.2809357235e-01 8.8252538158e+00" charge=0 multiplicity=1 method=wB97M-V basis=def2-svpd config_type=h2o sample_index=16 temperature=300.0 units=atomic
O         0.0000000000      -0.0015316977       0.0977757726  -1.862005794256e-15   4.747832668915e-02   9.966884166603e-02
H        -0.0000000000       0.8040142654      -0.3452736386   2.396828529351e-16   2.853914541758e-02  -3.658458222142e-02
H        -0.0000000000      -0.7788739573      -0.3258744100   2.302028954610e-16  -7.601318411472e-02  -6.307277439353e-02
3
Properties=species:S:1:pos:R:3:forces:R:3 energy=-7.634255128456e+01 dipole="-3.0266588781e-15 1.9346038729e-02 -8.1247235547e-01" quadrupole="-5.8645320228e+00 4.6329226003e-15 3.1756672462e-16 4.6329226003e-15 -3.6907669175e+00 -6.6187830055e-02 3.1756672462e-16 -6.6187830055e-02 -4.5972529251e+00" polarizability="9.2313797015e+00 -1.2016830562e-14 -2.9461447988e-15 -1.2016830562e-14 1.0035509606e+01 -3.3422231979e-01 -2.9461447988e-15 -3.3422231979e-01 9.8053203356e+00" charge=0 multiplicity=1 method=wB97M-V basis=def2-svpd config_type=h2o sample_index=17 temperature=300.0 units=atomic
O        -0.0000000000      -0.0028433518       0.1229630258   1.101247687216e-16   4.554388837715e-02  -2.436962506016e-02
H         0.0000000000       0.7364229906      -0.5549216429   8.732331818116e-17  -1.213749770289e-02   3.255264566469e-02
H         0.0000000000      -0.6902894418      -0.5194642908   1.338264885430e-16  -3.340257937730e-02  -8.178018656184e-03
3
Properties=species:S:1:pos:R:3:forces:R:3 energy=-7.634254864501e+01 dipole="-2.6087547593e-16 1.2635857074e-02 -8.1207397375e-01" quadrupole="-5.8296151073e+00 -1.8594258520e-16 -2.3999912172e-15 -1.8594258520e-16 -3.7400817378e+00 -4.2509538699e-02 -2.3999912172e-15 -4.2509538699e-02 -4.5754770488e+00" polarizability="9.1243746918e+00 1.3812609345e-14 6.1080218764e-15 1.3812609345e-14 9.6823833083e+00 -2.1200936170e-01 6.1080218764e-15 -2.1200936170e-01 9.5628509760e+00" charge=0 multiplicity=1 method=wB97M-V basis=def2-svpd config_type=h2o sample_index=18 temperature=300.0 units=atomic
O        -0.0000000000      -0.0018470111       0.1222381774  -7.906771652149e-16   3.325419601436e-02  -4.970213936430e-03
H         0.0000000000       0.7099295820      -0.5430303214  -1.829926809748e-16   9.413341428054e-03   1.763093539087e-02
H         0.0000000000      -0.6797374779      -0.5197613857  -1.211061694623e-16  -4.266541393260e-02  -1.265643808945e-02
3
Properties=species:S:1:pos:R:3:forces:R:3 energy=-7.633933847987e+01 dipole="-1.8065799286e-15 -2.5288132190e-02 -7.2290796890e-01" quadrupole="-5.9725925321e+00 -3.9134513654e-16 8.0312729964e-16 -3.9134513654e-16 -3.0579815255e+00 7.2093258977e-02 8.0312729964e-16 7.2093258977e-02 -5.0371170130e+00" polarizability="9.5826153218e+00 -3.9100119198e-15 -7.3000471268e-15 -3.9100119198e-15 1.1462874525e+01 3.3994451410e-01 -7.3000471268e-15 3.3994451410e-01 1.0167249824e+01" charge=0 multiplicity=1 method=wB97M-V basis=def2-svpd config_type=h2o sample_index=19 temperature=300.0 units=atomic
O         0.0000000000       0.0029528145       0.1134893425   3.728728625969e-16  -3.772119093192e-02  -3.603825309876e-02
H        -0.0000000000       0.8156780551      -0.4436304498  -3.007548741773e-17  -2.512258808136e-02   4.729568116030e-03
H        -0.0000000000      -0.8622876217      -0.4790373899   2.208268522817e-16   6.284537481716e-02   3.130368361981e-02
3
Properties=species:S:1:pos:R:3:forces:R:3 energy=-7.633210711784e+01 dipole="3.3248178435e-16 5.5755103449e-02 -7.8629669434e-01" quadrupole="-5.9595263500e+00 -2.0988793931e-16 1.1140794251e-15 -2.0988793931e-16 -3.3736733924e+00 -1.8576780102e-01 1.1140794251e-15 -1.8576780102e-01 -4.7732149079e+00" polarizability="9.5432586788e+00 1.1039248286e-14 -7.8132970890e-15 1.1039248286e-14 1.1285349955e+01 -9.4715274599e-01 -7.8132970890e-15 -9.4715274599e-01 1.0411364054e+01" charge=0 multiplicity=1 method=wB97M-V basis=def2-svpd config_type=h2o sample_index=20 temperature=300.0 units=atomic
O        -0.0000000000      -0.0076054124       0.1213289950   3.394049018049e-16   9.508867518656e-02  -4.022635020365e-02
H         0.0000000000       0.8514399753      -0.5709465720  -2.875246176441e-17  -6.993694793634e-02   5.851767013858e-02
H         0.0000000000      -0.7291144410      -0.4772435876   2.896282158260e-16  -2.514528063221e-02  -1.829541291371e-02
3
Properties=species:S:1:pos:R:3:forces:R:3 energy=-7.634589854886e+01 dipole="-2.3526266590e-15 -8.6934398464e-03 -7.7121971390e-01" quadrupole="-5.8303681730e+00 -3.8794693713e-16 2.4846502395e-15 -3.8794693713e-16 -3.5211894297e+00 2.5567295356e-02 2.4846502395e-15 2.5567295356e-02 -4.7503864622e+00" polarizability="9.1344559967e+00 -1.0775625896e-14 3.2584247664e-15 -1.0775625896e-14 9.7559109817e+00 1.2277307057e-01 3.2584247664e-15 1.2277307057e-01 9.4160066195e+00" charge=0 multiplicity=1 method=wB97M-V basis=def2-svpd config_type=h2o sample_index=21 temperature=300.0 units=atomic
O        -0.0000000000       0.0011798799       0.1169332417   7.455842413741e-17  -2.182347415900e-02   9.570873284622e-03
H         0.0000000000       0.7219194592      -0.4820535959   4.908800897388e-17   2.882245710216e-02  -1.373034440229e-02
H         0.0000000000      -0.7401595965      -0.4957982381   5.908439577200e-17  -7.000540969293e-03   4.153560114114e-03
3
Properties=species:S:1:pos:R:3:forces:R:3 energy=-7.633266675449e+01 dipole="-2.3513874653e-15 2.9344027577e-02 -6.3272836646e-01" quadrupole="-5.7576046044e+00 2.5760500812e-15 1.5768038314e-15 2.5760500812e-15 -3.0461106716e+00 -6.2532756453e-02 1.5768038314e-15 -6.2532756453e-02 -5.1662717235e+00" polarizability="8.9761875937e+00 -1.0838525479e-14 -5.3091721631e-15 -1.0838525479e-14 9.2509148436e+00 -2.3184900044e-01 -5.3091721631e-15 -2.3184900044e-01 8.8011732573e+00" charge=0 multiplicity=1 method=wB97M-V basis=def2-svpd config_type=h2o sample_index=22 temperature=300.0 units=atomic
O         0.0000000000      -0.0027451547       0.0992778503   1.065443087573e-15   8.462085306360e-02   1.044878739905e-01
H        -0.0000000000       0.8042448682      -0.3647180135  -6.140003802919e-17   1.604990213377e-02  -2.766582673592e-02
H        -0.0000000000      -0.7596886625      -0.3304801523  -1.321015819639e-16  -1.006661258064e-01  -7.680991932734e-02
3
Properties=species:S:1:pos:R:3:forces:R:3 energy=-7.633570465119e+01 dipole="-2.2585602625e-15 1.7446217905e-02 -8.6086859028e-01" quadrupole="-5.8751464882e+00 2.4082076212e-15 2.0373212824e-15 2.4082076212e-15 -3.9673987725e+00 -6.8691289550e-02 2.0373212824e-15 -6.8691289550e-02 -4.3759544543e+00" polarizability="9.2599265868e+00 2.1287215349e-15 -5.6925860969e-15 2.1287215349e-15 1.0034125831e+01 -3.6286143524e-01 -5.6925860969e-15 -3.6286143524e-01 1.0120496563e+01" charge=0 multiplicity=1 method=wB97M-V basis=def2-svpd config_type=h2o sample_index=23 temperature=300.0 units=atomic
O        -0.0000000000      -0.0029621758       0.1297098423  -6.550313313133e-16   4.064245755591e-02  -4.954146026820e-02
H         0.0000000000       0.6929116131      -0.6096610040  -5.328694367458e-17  -1.368591916007e-03   4.515635183273e-02
H         0.0000000000      -0.6448747528      -0.5727504958   2.073585112774e-16  -3.927579333261e-02   4.396275787331e-03
3
Properties=species:S:1:pos:R:3:forces:R:3 energy=-7.633077595174e+01 dipole="9.7815501991e-16 7.4231602049e-02 -6.9982144639e-01" quadrupole="-5.9217232253e+00 1.2061652325e-15 -2.0525246110e-15 1.2061652325e-15 -3.0035957061e+00 -1.9611900737e-01 -2.0525246110e-15 -1.9611900737e-01 -5.0856994908e+00" polarizability="9.4441755468e+00 -5.8767270753e-15 1.3522902287e-14 -5.8767270753e-15 1.1017783230e+01 -8.6808196208e-01 1.3522902287e-14 -8.6808196208e-01 9.8534912361e+00" charge=0 multiplicity=1 method=wB97M-V basis=def2-svpd config_type=h2o sample_index=24 temperature=300.0 units=atomic
O         0.0000000000      -0.0079705551       0.1095312254  -8.457353009270e-16   1.336321265795e-01   1.427397016022e-02
H        -0.0000000000       0.8947388640      -0.4787353742  -1.396697120042e-17  -7.888505610850e-02   3.756591627610e-02
H         0.0000000000      -0.7665741775      -0.3805753433   1.937614363631e-16  -5.474770292855e-02  -5.183954946952e-02
3
Properties=species:S:1:pos:R:3:forces:R:3 energy=-7.633887834986e+01 dipole="-2.5269613768e-15 2.6553700322e-02 -8.2515288825e-01" quadrupole="-5.9233359893e+00 -1.3227700886e-15 3.6639578070e-15 -1.3227700886e-15 -3.6746239781e+00 -9.6925886735e-02 3.6639578070e-15 -9.6925886735e-02 -4.5765932629e+00" polarizability="9.4140397424e+00 8.9327238025e-15 -6.1144195885e-15 8.9327238025e-15 1.0650883562e+01 -5.0717870582e-01 -6.1144195885e-15 -5.0717870582e-01 1.0288698082e+01" charge=0 multiplicity=1 method=wB97M-V basis=def2-svpd config_type=h2o sample_index=25 temperature=300.0 units=atomic
O        -0.0000000000      -0.0040678487       0.1258516820   2.178359277462e-16   5.214527071896e-02  -5.700081043471e-02
H         0.0000000000       0.7663121260      -0.5855284055   7.070175039240e-17  -3.563920700014e-02   5.178686737362e-02
H         0.0000000000      -0.7005861592      -0.5350893350  -5.823080061697e-17  -1.650163376154e-02   5.219532444295e-03
3
Properties=species:S:1:pos:R:3:forces:R:3 energy=-7.632450665859e+01 dipole="-1.7431300707e-16 6.9669365759e-03 -7.1883921179e-01" quadrupole="-5.6706598944e+00 -3.3606745827e-15 -3.0688209039e-15 -3.3606745827e-15 -3.4941632438e+00 -1.7104480566e-02 -3.0688209039e-15 -1.7104480566e-02 -4.8235494400e+00" polarizability="8.6936363903e+00 1.2012178327e-14 1.2209535647e-14 1.2012178327e-14 8.4358720651e+00 -7.3310800947e-02 1.2209535647e-14 -7.3310800947e-02 8.3854753788e+00" charge=0 multiplicity=1 method=wB97M-V basis=def2-svpd config_type=h2o sample_index=26 temperature=300.0 units=atomic
O        -0.0000000000      -0.0007880536       0.1077712811  -3.611070766023e-16   2.870303397174e-02   1.585610277777e-01
H         0.0000000000       0.6975245422      -0.4207527397   1.952757940994e-16   1.005952166706e-01  -6.841869109016e-02
H         0.0000000000      -0.6842789828      -0.4104540209  -2.130655525307e-16  -1.292987051255e-01  -9.014971153046e-02
3
Properties=species:S:1:pos:R:3:forces:R:3 energy=-7.634112201680e+01 dipole="3.3267984636e-16 -3.4961965213e-02 -7.8723212834e-01" quadrupole="-5.8930474567e+00 2.7409163771e-16 -6.3616743522e-16 2.7409163771e-16 -3.5007922989e+00 1.1215240539e-01 -6.3616743522e-16 1.1215240539e-01 -4.7269118279e+00" polarizability="9.3261583390e+00 -2.7483246443e-15 7.5098033665e-15 -2.7483246443e-15 1.0423093192e+01 5.5795841998e-01 7.5098033665e-15 5.5795841998e-01 9.9094726984e+00" charge=0 multiplicity=1 method=wB97M-V basis=def2-svpd config_type=h2o sample_index=27 temperature=300.0 units=atomic
O        -0.0000000000       0.0048419583       0.1201549351  -1.661793894171e-16  -7.350470350675e-02  -2.247886200594e-02
H         0.0000000000       0.7135161884      -0.4854487555  -6.892268745058e-17   3.358510116460e-02  -1.926753099578e-02
H        -0.0000000000      -0.7903495373      -0.5439655467  -8.276276183346e-17   3.991386882763e-02   4.174367768298e-02
3
Properties=species:S:1:pos:R:3:forces:R:3 energy=-7.634073558450e+01 dipole="1.8817417462e-15 1.7262250409e-02 -8.0900100341e-01" quadrupole="-5.8076978471e+00 8.4238645286e-16 -5.2329154165e-15 8.4238645286e-16 -3.7511199711e+00 -5.6692442662e-02 -5.2329154165e-15 -5.6692442662e-02 -4.5739432732e+00" polarizability="9.0598505750e+00 -1.0672248006e-14 2.1374311642e-14 -1.0672248006e-14 9.4888232081e+00 -2.8045583424e-01 2.1374311642e-14 -2.8045583424e-01 9.4106945862e+00" charge=0 multiplicity=1 method=wB97M-V basis=def2-svpd config_type=h2o sample_index=28 temperature=300.0 units=atomic
O        -0.0000000000      -0.0025125823       0.1214091000  -1.117590086717e-15   4.854004958177e-02   1.328496860967e-02
H         0.0000000000       0.7068060879      -0.5404644281  -5.231713094585e-17   1.316804727809e-02   1.557236821857e-02
H         0.0000000000      -0.6659648398      -0.5090596031  -1.969321747825e-16  -6.170882218524e-02  -2.885564503805e-02
3
Properties=species:S:1:pos:R:3:forces:R:3 energy=-7.633113828005e+01 dipole="-1.3473876883e-15 7.1539034056e-02 -6.8368925243e-01" quadrupole="-5.9400292767e+00 4.4525870835e-17 5.9956934721e-17 4.4525870835e-17 -2.9091138603e+00 -1.8439132412e-01 5.9956934721e-17 -1.8439132412e-01 -5.1537280892e+00" polarizability="9.5027925506e+00 7.1904548841e-16 9.9235612467e-16 7.1904548841e-16 1.1240718595e+01 -8.0103578588e-01 9.9235612467e-16 -8.0103578588e-01 9.9100629983e+00" charge=0 multiplicity=1 method=wB97M-V basis=def2-svpd config_type=h2o sample_index=29 temperature=300.0 units=atomic
O         0.0000000000      -0.0073862368       0.1079466827  -1.501645409845e-15   1.184438166542e-01   7.840791624423e-03
H        -0.0000000000       0.9075953073      -0.4624763835   1.272503809961e-16  -8.187938077264e-02   3.425588591975e-02
H        -0.0000000000      -0.7887803694      -0.3714601277   1.318231908297e-16  -3.656869899122e-02  -4.209387256294e-02
3
Properties=species:S:1:pos:R:3:forces:R:3 energy=-7.633259232043e+01 dipole="2.4604315320e-15 -1.5363496863e-02 -7.4415843358e-01" quadrupole="-5.7120159074e+00 4.2793886695e-15 1.9395815809e-16 4.2793886695e-15 -3.5507175711e+00 3.9721193457e-02 1.9395815809e-16 3.9721193457e-02 -4.7658955783e+00" polarizability="8.7992812248e+00 -6.2126726971e-16 1.3840347625e-14 -6.2126726971e-16 8.7416635151e+00 1.7977732508e-01 1.3840347625e-14 1.7977732508e-01 8.6485199639e+00" charge=0 multiplicity=1 method=wB97M-V basis=def2-svpd config_type=h2o sample_index=30 temperature=300.0 units=atomic
O        -0.0000000000       0.0019448925       0.1114859602  -8.175914003192e-17  -5.554822573024e-02   1.134042467980e-01
H         0.0000000000       0.6775451560      -0.4337777449  -2.632864301373e-16   1.141435884601e-01  -7.899408783218e-02