7
Properties=species:S:1:pos:R:3:forces:R:3 energy=-6.997826480438e+02 dipole="1.1639751187e-01 2.5781997087e-01 -1.3100943524e+00" quadrupole="-2.3599911315e+01 -3.7757285074e+00 -3.8024670165e-01 -3.7757285074e+00 -2.8454368567e+01 4.0035863443e-01 -3.8024670165e-01 4.0035863443e-01 -2.6122100490e+01" polarizability="3.4858800453e+01 -1.2320952075e+00 -9.9964521853e-01 -1.2320952075e+00 3.7624076401e+01 -7.3203525038e-01 -9.9964521853e-01 -7.3203525038e-01 3.5316098614e+01" charge=0 multiplicity=1 method=wB97M-V basis=def2-svpd config_type=h2so4 sample_index=0 temperature=300.0 units=atomic
S         0.0039343722       0.0223548889       0.1597260329   2.295287255755e-02  -1.412612319096e-01  -1.955856928508e-04
O        -0.0483652792       1.2422598461       0.8160272098   9.405145211512e-03   7.788763086669e-02   3.856158596574e-02
O        -0.0068389628      -1.2950325355       0.8538665409   4.979739905000e-03   4.585114411395e-02  -2.206901021094e-02
O         1.2254656341       0.0340408364      -0.8935525918  -1.522471279966e-02   6.890581965776e-02   1.998262082849e-02
O        -1.1933919448      -0.0318580062      -0.8307884869  -1.869909185511e-02  -4.991358240687e-02  -9.256466430040e-03
H         1.6309151602      -0.7268935743      -1.2206111254   1.217521657834e-02  -5.211174160600e-02  -8.086342786311e-03
H        -1.3881668175       0.8266231271      -1.1060041528  -1.558562035457e-02   5.064690719974e-02  -1.902897457580e-02
7
Properties=species:S:1:pos:R:3:forces:R:3 energy=-6.997940394426e+02 dipole="1.3708172541e-01 1.6380603719e-01 -1.0239057181e+00" quadrupole="-2.4096175015e+01 -4.1958286503e+00 3.1318688936e-01 -4.1958286503e+00 -2.7967461266e+01 -9.9899305930e-02 3.1318688936e-01 -9.9899305930e-02 -2.7637919573e+01" polarizability="3.7698150412e+01 -2.0278538245e+00 -2.4651895453e-01 -2.0278538245e+00 4.0381013824e+01 -6.2231857603e-02 -2.4651895453e-01 -6.2231857603e-02 3.6202040109e+01" charge=0 multiplicity=1 method=wB97M-V basis=def2-svpd config_type=h2so4 sample_index=1 temperature=300.0 units=atomic
S         0.0249511630       0.0317062235       0.1502135909  -2.291318384745e-02  -5.742728089099e-02   1.504905035785e-02
O        -0.0641336256       1.2934862912       0.8464107053   1.109123733773e-02   2.964710747015e-04  -4.538266119736e-03
O         0.0037118126      -1.3053076981       0.8014181964   1.055492592492e-02   4.127084119393e-02  -1.286448404199e-02
O         1.2782878243       0.0091075572      -0.8830700184  -3.345201125368e-03  -1.716010430360e-02   1.119001846296e-02
O        -1.2706366660      -0.0578956899      -0.8305230822   5.661071622679e-03   4.214342652194e-02  -5.727001729959e-03
H         1.5492623839      -0.9511325853      -0.8592276804  -2.196181097748e-03   2.156913161568e-02  -4.476401268320e-03
H        -1.4996337799       0.9064753805      -1.0126219621   1.214467211616e-03  -3.070783206440e-02   1.362796969520e-03
7
Properties=species:S:1:pos:R:3:forces:R:3 energy=-6.997818481367e+02 dipole="1.7762435643e-01 -1.9841883734e-01 -7.1681976013e-01" quadrupole="-2.4265552090e+01 -4.1896115837e+00 -3.3623062340e-01 -4.1896115837e+00 -2.7338564925e+01 -1.3465642768e-01 -3.3623062340e-01 -1.3465642768e-01 -2.7881850789e+01" polarizability="3.6859374935e+01 -2.2542501253e+00 4.8431165724e-01 -2.2542501253e+00 3.8615301921e+01 8.5473098541e-01 4.8431165724e-01 8.5473098541e-01 3.4741692298e+01" charge=0 multiplicity=1 method=wB97M-V basis=def2-svpd config_type=h2so4 sample_index=2 temperature=300.0 units=atomic
S         0.0025911349      -0.0148015983       0.1745247860  -1.473553652133e-02   1.056766910834e-01  -6.591169413258e-02
O        -0.0290314682       1.2913549640       0.8149433227  -2.749958256141e-03  -1.267361820840e-02  -6.865696700924e-04
O         0.0564563269      -1.2437669573       0.7764230126  -2.051635325849e-03  -1.086006497833e-01   6.631533141905e-02
O         1.2392646610       0.0190377906      -0.8384546343   2.681601038664e-02  -5.632672339179e-02  -6.378032325811e-03
O        -1.2801233481      -0.0349432395      -0.8783591678   2.016357327427e-02   2.974433804820e-02   2.345782484974e-02
H         1.5748425671      -0.9794269899      -0.8459900423  -1.581259252107e-02   5.889108247215e-02  -4.408280937036e-03
H        -1.4423021293       0.9425089873      -0.8468443762  -1.162653944755e-02  -1.674962242596e-02  -1.241250449632e-02
7
Properties=species:S:1:pos:R:3:forces:R:3 energy=-6.997872582160e+02 dipole="-3.6427139402e-01 4.6367044928e-02 -1.1727764709e+00" quadrupole="-2.4139318448e+01 -3.6359056779e+00 7.4670977689e-02 -3.6359056779e+00 -2.7902592452e+01 4.4213898228e-01 7.4670977689e-02 4.4213898228e-01 -2.6430795027e+01" polarizability="3.6394372741e+01 -2.8711154958e+00 1.1871014950e+00 -2.8711154958e+00 3.8922699505e+01 4.6577664326e-01 1.1871014950e+00 4.6577664326e-01 3.6725070614e+01" charge=0 multiplicity=1 method=wB97M-V basis=def2-svpd config_type=h2so4 sample_index=3 temperature=300.0 units=atomic
S        -0.0005614366       0.0063569610       0.1787922961  -1.495249990342e-02   2.948248294845e-02  -2.088555644087e-02
O        -0.0643967517       1.2799872758       0.8670792066   6.699216117003e-03  -8.256361714103e-03  -6.383091671619e-03
O         0.1084423867      -1.2502040274       0.8347602401  -1.897200024014e-02  -2.779144946585e-02   2.119696641761e-02
O         1.2027686154      -0.0448089043      -0.8513803465   1.867480837685e-02   3.380165473466e-02  -6.093179845216e-03
O        -1.2092016036      -0.0000044143      -0.9411296396  -2.785802826764e-02   3.522048644872e-02   7.132757267032e-03
H         1.1654799845      -0.8715527187      -1.3267815758   8.111686290553e-04  -1.436739744440e-02  -6.046815309681e-03
H        -1.7414032040       0.8979940207      -1.0097224396   3.567139200247e-02  -4.810483935143e-02   1.102697342322e-02
7
Properties=species:S:1:pos:R:3:forces:R:3 energy=-6.997600926170e+02 dipole="3.1184592481e-01 -8.3742400439e-02 -1.3304475948e+00" quadrupole="-2.1656748140e+01 -4.9049530570e+00 7.0137635009e-01 -4.9049530570e+00 -2.8004561078e+01 -8.9204633707e-01 7.0137635009e-01 -8.9204633707e-01 -2.6888477149e+01" polarizability="3.8130640653e+01 -3.8656517087e+00 1.8473562864e-01 -3.8656517087e+00 3.9521555094e+01 -2.8673957613e-01 1.8473562864e-01 -2.8673957613e-01 3.7350442459e+01" charge=0 multiplicity=1 method=wB97M-V basis=def2-svpd config_type=h2so4 sample_index=4 temperature=300.0 units=atomic
S         0.0317421944      -0.0026424447       0.1536289282  -3.103972682588e-02   6.888575210117e-02  -8.226673748589e-03
O        -0.0648692216       1.2428599182       0.8865958836   1.626054021946e-02   3.866136686245e-03  -6.616422988818e-03
O        -0.0039105895      -1.2191629479       0.8393071242   7.252890167942e-03  -6.768147054455e-02   3.012721421301e-02
O         1.1813491503       0.0149226623      -0.9227803308   7.736203196350e-02  -6.418769943077e-02  -1.122397233313e-02
O        -1.1889471189      -0.0322217568      -0.8507594976  -5.891282798701e-02   5.534661584375e-02  -5.388068015591e-02
H         1.8065763117      -0.9107747114      -0.9230874807  -5.395094297586e-02   7.269187627587e-02   4.909942177085e-03
H        -1.5990945652       0.8945232739      -1.3062475577   4.301876781663e-02  -6.892450637681e-02   4.483430402321e-02
7
Properties=species:S:1:pos:R:3:forces:R:3 energy=-6.997606153391e+02 dipole="-3.8725560355e-01 -1.2097452331e-03 -9.1965631983e-01" quadrupole="-2.1743742603e+01 -5.0824409452e+00 1.4587491969e+00 -5.0824409452e+00 -2.7720502114e+01 -7.6619101018e-01 1.4587491969e+00 -7.6619101018e-01 -2.8018561821e+01" polarizability="4.0003085774e+01 -4.3098272537e+00 8.7267150684e-01 -4.3098272537e+00 4.0954894738e+01 3.0861632392e-01 8.7267150684e-01 3.0861632392e-01 3.7058823758e+01" charge=0 multiplicity=1 method=wB97M-V basis=def2-svpd config_type=h2so4 sample_index=5 temperature=300.0 units=atomic
S        -0.0264080996       0.0178560548       0.1694086636   2.908100203696e-02   5.887374266486e-02  -3.137682416028e-02
O        -0.0325511110       1.2909613647       0.8864087567  -2.033013567707e-03  -1.895918960971e-02  -1.368510936447e-02
O         0.0715213387      -1.2467162580       0.7815534210  -1.042808079405e-02  -5.024941886415e-02   3.652353083648e-02
O         1.2428372173      -0.0289823043      -0.8927132222   2.100130429620e-02  -6.071210574203e-02   1.854410609203e-02
O        -1.2177568356      -0.0422315796      -0.8801904872  -6.698216698865e-02   6.878138307229e-02  -2.551413189171e-02
H         1.6628595684      -1.0360927460      -0.7526603262  -3.237259411167e-02   7.686767530536e-02  -1.066902747331e-02
H        -1.8434977470       0.8915541602      -1.0908502720   6.173137566461e-02  -7.462568534672e-02   2.607152988991e-02
7
Properties=species:S:1:pos:R:3:forces:R:3 energy=-6.997685353328e+02 dipole="-5.1998147902e-01 8.8231794161e-02 -9.8391928570e-01" quadrupole="-2.2531875981e+01 -4.6646711140e+00 -9.3655884241e-02 -4.6646711140e+00 -2.8283658578e+01 6.3774578360e-01 -9.3655884241e-02 6.3774578360e-01 -2.6742526117e+01" polarizability="3.9536302182e+01 -2.9268020811e+00 -2.6819844682e-01 -2.9268020811e+00 4.0449027561e+01 -1.9434948960e-01 -2.6819844682e-01 -1.9434948960e-01 3.6422842130e+01" charge=0 multiplicity=1 method=wB97M-V basis=def2-svpd config_type=h2so4 sample_index=6 temperature=300.0 units=atomic
S        -0.0160053620       0.0005583046       0.1901029896   2.798910994649e-02  -1.411030113231e-02  -5.248285860581e-02
O        -0.0009813218       1.2881134193       0.7872501689  -7.212285778513e-04   2.408428390894e-02   2.560895881238e-02
O        -0.0087268877      -1.2906351148       0.8100717174   2.505434776743e-03  -8.123124766374e-03   1.664541859533e-02
O         1.2756710744       0.0550965659      -0.8629017941  -1.230550282398e-02  -5.612249931772e-03   9.369769555954e-03
O        -1.2057877900      -0.0590519061      -0.8626403162  -7.925161483343e-02   7.737194692834e-02  -1.138599796531e-02
H         1.4584579380      -0.8072233017      -1.2946927063  -6.943858913510e-03   7.886459018968e-03   9.945119200204e-03
H        -1.9055090345       0.8880244838      -0.8478588732   6.874455668807e-02  -8.144084206831e-02   2.281843718410e-03
7
Properties=species:S:1:pos:R:3:forces:R:3 energy=-6.997489400223e+02 dipole="1.9453665147e-01 -1.1957332633e-01 -6.9784801860e-01" quadrupole="-2.1455919045e+01 -5.2476513328e+00 1.9026388154e-01 -5.2476513328e+00 -2.7770539200e+01 -3.5130950134e-01 1.9026388154e-01 -3.5130950134e-01 -2.9011339036e+01" polarizability="4.0511927243e+01 -3.6376638086e+00 4.7868685693e-02 -3.6376638086e+00 3.9926102488e+01 5.1968836330e-01 4.7868685693e-02 5.1968836330e-01 3.6250318709e+01" charge=0 multiplicity=1 method=wB97M-V basis=def2-svpd config_type=h2so4 sample_index=7 temperature=300.0 units=atomic
S         0.0028772078      -0.0012294858       0.1561622775   4.634466677556e-05   5.444862105376e-02  -5.262885252510e-02
O         0.0106980479       1.2465232191       0.8676628633  -7.936436756462e-03   1.642474634577e-02   8.904504251586e-04
O        -0.0122697642      -1.2181640058       0.8232107890   7.307063358693e-03  -8.237675590956e-02   4.315729946929e-02
O         1.2316489379       0.0566032486      -0.9026153779   5.652856769996e-02  -9.686164690820e-02   2.747684598518e-02
O        -1.2489572943      -0.0769272318      -0.8910220127  -1.670397779365e-02   7.085009463813e-02   1.527064022750e-02
H         1.8864950135      -0.9713038875      -0.6513017274  -5.963931326484e-02   9.286776516508e-02  -2.423581074113e-02
H        -1.6773798235       0.8816069121      -0.8115334898   2.039139574474e-02  -5.537229917058e-02  -1.005954778054e-02
7
Properties=species:S:1:pos:R:3:forces:R:3 energy=-6.997819679305e+02 dipole="-1.6441489913e-01 -1.0760010604e-01 -1.4366766030e+00" quadrupole="-2.3681170342e+01 -4.0910956818e+00 -7.3862504098e-01 -4.0910956818e+00 -2.8567175863e+01 5.0189997764e-01 -7.3862504098e-01 5.0189997764e-01 -2.5695905419e+01" polarizability="3.6955007330e+01 -1.1003181984e+00 -6.3655998383e-01 -1.1003181984e+00 3.8584847212e+01 1.3961402999e+00 -6.3655998383e-01 1.3961402999e+00 3.7646736074e+01" charge=0 multiplicity=1 method=wB97M-V basis=def2-svpd config_type=h2so4 sample_index=8 temperature=300.0 units=atomic
S        -0.0296775061      -0.0117388229       0.1519759100   3.220566692154e-02   3.486300656586e-02  -3.897924600547e-03
O         0.0672398043       1.2602141938       0.8487998943  -1.845682662421e-02  -6.183941108564e-03  -1.037608435729e-02
O        -0.0040633880      -1.2392322131       0.8572701749  -6.172701496307e-03  -3.504980067514e-02   1.186989949411e-02
O         1.2436137888       0.0904653647      -0.8355634397   2.318674617256e-02  -5.724381010826e-02  -4.833483379207e-02
O        -1.2437250635      -0.0859275855      -0.8996016647   2.083741837688e-02  -5.806399289319e-02   1.674524379595e-02
H         1.5168241156      -0.7843086185      -1.4193619814  -2.795724247595e-02   5.847874293429e-02   4.718620792772e-02
H        -1.5773590495       0.7475949570      -1.0677186283  -2.370686349502e-02   6.329419464700e-02  -1.323752342708e-02
7
Properties=species:S:1:pos:R:3:forces:R:3 energy=-6.997739669927e+02 dipole="-1.8422414404e-01 1.0007475716e-01 -1.5183542928e+00" quadrupole="-2.3759186942e+01 -4.2475100154e+00 -3.4346165869e-01 -4.2475100154e+00 -2.8782139645e+01 7.0394171547e-01 -3.4346165869e-01 7.0394171547e-01 -2.6483243563e+01" polarizability="3.7166633943e+01 -1.3039025717e+00 1.7243492977e-01 -1.3039025717e+00 4.1510851121e+01 7.2857509841e-01 1.7243492977e-01 7.2857509841e-01 3.8909467434e+01" charge=0 multiplicity=1 method=wB97M-V basis=def2-svpd config_type=h2so4 sample_index=9 temperature=300.0 units=atomic
S         0.0166238954       0.0157818897       0.1462363645  -1.810777888526e-02  -1.679851380840e-02   6.730159776014e-02
O         0.0418228519       1.2947333494       0.9050771606  -6.074051800048e-03  -3.745666393737e-02  -3.537642631645e-02
O        -0.0704317410      -1.2756238521       0.8744288362   1.700608999330e-02   3.584475872092e-02  -2.169114836662e-02
O         1.1976879722       0.0879257744      -0.8879491341   3.006029596681e-02  -4.406148011402e-02  -3.331668832404e-02
O        -1.1764203616      -0.1413430973      -0.9147459412  -5.512433391884e-02   9.256554290912e-02  -5.151193368876e-03
H         1.2748591191      -0.8079397137      -1.4090548114  -4.592131891722e-03   4.429240549672e-02   2.746780447699e-02
H        -1.6795913733       0.8425331575      -0.9699761371   3.683672539384e-02  -7.440111780894e-02   7.226047512511e-04
7
Properties=species:S:1:pos:R:3:forces:R:3 energy=-6.997726937791e+02 dipole="-2.2914100636e-01 8.5837959620e-02 -1.4597867305e+00" quadrupole="-2.1913268006e+01 -5.0211372457e+00 4.3293643977e-01 -5.0211372457e+00 -2.8452254618e+01 6.9325546871e-02 4.3293643977e-01 6.9325546871e-02 -2.6287958999e+01" polarizability="4.0315219437e+01 -3.1506442678e+00 -2.6033079401e-01 -3.1506442678e+00 4.0579694354e+01 -5.1774562198e-01 -2.6033079401e-01 -5.1774562198e-01 3.7842304053e+01" charge=0 multiplicity=1 method=wB97M-V basis=def2-svpd config_type=h2so4 sample_index=10 temperature=300.0 units=atomic
S        -0.0154051902       0.0069279312       0.1321244382   3.021457083840e-02  -3.333025791931e-02   1.682769545082e-02
O        -0.0062624662       1.2563957713       0.8283249528   2.056501224074e-03   1.844506785989e-02   3.788732717753e-03
O        -0.0020950349      -1.2742199998       0.8401152636  -1.041728871956e-03   1.735329237932e-02  -1.615897077173e-02
O         1.3103930134       0.0524757165      -0.8517124737   9.261494981317e-03  -4.187828723493e-02  -1.740539802396e-02
O        -1.2679315373      -0.0481396187      -0.8170000888  -5.443402952697e-02   5.023322305199e-02  -4.825072710780e-02
H         1.7324815418      -0.8635025774      -1.1794944008  -3.721178422965e-02   5.176874655402e-02   2.748518997043e-02
H        -1.7871220992       0.8593797230      -1.1653612383   5.113424822650e-02  -6.262785559476e-02   3.358094931532e-02
7
Properties=species:S:1:pos:R:3:forces:R:3 energy=-6.997782650138e+02 dipole="-9.4786761647e-02 3.1345552679e-02 -1.3735403411e+00" quadrupole="-2.5090791957e+01 -3.5696796399e+00 3.7339688964e-01 -3.5696796399e+00 -2.8572416678e+01 -4.2208870060e-01 3.7339688964e-01 -4.2208870060e-01 -2.6010191360e+01" polarizability="3.5639873960e+01 -1.7574914193e+00 6.9987933237e-01 -1.7574914193e+00 4.0714427695e+01 -6.6980672168e-02 6.9987933237e-01 -6.6980672168e-02 3.4831023025e+01" charge=0 multiplicity=1 method=wB97M-V basis=def2-svpd config_type=h2so4 sample_index=11 temperature=300.0 units=atomic
S         0.0083873003       0.0007617030       0.1459133410  -1.993711172586e-02   4.960606065692e-02   6.103968467877e-02
O        -0.0394926332       1.3520528158       0.8021254714   7.476585747957e-03  -5.829960815009e-02  -2.027748517252e-02
O         0.0352695381      -1.3157286367       0.7517209782  -3.565994095808e-03   7.039187831346e-03   1.135134497632e-02
O         1.2559507938       0.0105076184      -0.7915321169   1.248958833035e-02   9.210283604191e-02   5.596491719356e-03
O        -1.2576573882      -0.0548188414      -0.7985497866  -2.170040400335e-02   6.040053793974e-02  -3.940195670155e-02
H         1.2728205603      -0.8351406701      -1.0848195625   1.643989420758e-02  -9.193762008242e-02  -3.857292531327e-02
H        -1.4426421888       0.9334434484      -1.1318151250   8.840053633959e-03  -5.892229213761e-02   2.025270731849e-02
7
Properties=species:S:1:pos:R:3:forces:R:3 energy=-6.997880441090e+02 dipole="3.4317492445e-01 -1.4876213795e-01 -1.3671138313e+00" quadrupole="-2.2940334919e+01 -4.0551323183e+00 -3.3528570597e-01 -4.0551323183e+00 -2.8652705120e+01 -6.3448458678e-01 -3.3528570597e-01 -6.3448458678e-01 -2.6963021218e+01" polarizability="3.5740388127e+01 -1.9147833370e+00 3.9395374516e-02 -1.9147833370e+00 3.9476619299e+01 5.3070337150e-01 3.9395374516e-02 5.3070337150e-01 3.5767713012e+01" charge=0 multiplicity=1 method=wB97M-V basis=def2-svpd config_type=h2so4 sample_index=12 temperature=300.0 units=atomic
S        -0.0059327098      -0.0193888348       0.1388304789  -1.389024368859e-03   6.251898350926e-02   6.532274923954e-02
O        -0.0051885995       1.3074353810       0.8576113069  -3.830624275518e-03  -5.528236434163e-02  -3.361939349513e-02
O         0.0312327601      -1.2671674542       0.8280589681  -4.109070405585e-03  -2.216878594290e-02   1.234118270977e-02
O         1.1769716560       0.0356840825      -0.8532850411   6.420273028568e-02  -2.122486318020e-02  -3.884217158463e-02
O        -1.2198099341      -0.0427131988      -0.8589374581  -1.677202825152e-02   1.009796231300e-02  -1.275130422802e-02
H         1.7582186744      -0.7943365832      -0.9594146279  -3.052550840829e-02   3.031690843298e-02   9.948264605359e-03
H        -1.3044864223       0.8843572077      -1.1528484008  -7.609619472988e-03  -4.228429755610e-03  -2.549646574450e-03
7
Properties=species:S:1:pos:R:3:forces:R:3 energy=-6.997551063961e+02 dipole="2.1018588229e-01 1.5586117962e-01 -1.4467470235e+00" quadrupole="-2.6204236426e+01 -3.5493213008e+00 -1.3472864128e-01 -3.5493213008e+00 -2.8293914289e+01 -2.7544257494e-01 -1.3472864128e-01 -2.7544257494e-01 -2.4891623475e+01" polarizability="3.8898406104e+01 -8.8505732248e-01 1.1782111714e+00 -8.8505732248e-01 4.1817047553e+01 -1.5631770801e+00 1.1782111714e+00 -1.5631770801e+00 4.0737841056e+01" charge=0 multiplicity=1 method=wB97M-V basis=def2-svpd config_type=h2so4 sample_index=13 temperature=300.0 units=atomic
S        -0.0003205535       0.0306250157       0.1753099558  -1.390436592430e-02  -7.935601997621e-02  -2.561958846223e-02
O         0.0540635837       1.2689105629       0.8603040503  -7.012466110039e-03   2.987517662557e-02   1.176314679974e-02
O        -0.0217566317      -1.2901476744       0.8235856302   5.197964763700e-03   2.939419760683e-02  -7.199013849815e-03
O         1.2665500674       0.0895743610      -0.8648631292  -4.355578077998e-03  -3.809064348367e-02  -9.212133211941e-03
O        -1.3168960678      -0.1301152061      -0.8766449184   4.975036957154e-02   1.090201017943e-01  -4.378881902125e-02
H         1.4508553106      -0.8577073727      -1.2011044424  -9.020603214286e-03   3.801565234763e-02   1.459974092784e-02
H        -1.1549643666       0.8699645322      -1.5740295566  -2.066395474862e-02  -8.885473896173e-02   5.947479526980e-02
7
Properties=species:S:1:pos:R:3:forces:R:3 energy=-6.997537539666e+02 dipole="-3.3263713921e-01 3.8823017561e-02 -1.1779383143e+00" quadrupole="-2.5814653936e+01 -3.2336980393e+00 -5.5556337059e-01 -3.2336980393e+00 -2.8572615581e+01 1.3967737174e+00 -5.5556337059e-01 1.3967737174e+00 -2.6871659999e+01" polarizability="3.7558455534e+01 -1.2162385563e+00 -6.3500224436e-01 -1.2162385563e+00 4.2701868042e+01 9.2777076646e-01 -6.3500224436e-01 9.2777076646e-01 3.7720552961e+01" charge=0 multiplicity=1 method=wB97M-V basis=def2-svpd config_type=h2so4 sample_index=14 temperature=300.0 units=atomic
S        -0.0099338608      -0.0035179329       0.1471003138   4.154400428670e-02  -3.471197778079e-02   5.473908459681e-02
O        -0.0164060065       1.3285334398       0.7914841949  -8.863632749096e-03  -3.253100119687e-02  -7.375085686828e-03
O         0.0078216954      -1.3390257904       0.8464372023   6.032711104031e-04   6.028219520142e-02  -2.642281615553e-02
O         1.3000036849       0.0737972054      -0.8274202103  -4.890365714199e-02  -9.516750010364e-02  -4.360028238300e-02
O        -1.2429432477      -0.0578245291      -0.8629030638  -1.178379543344e-02   6.536160430876e-02   1.775419317558e-02
H         1.0312060417      -0.9085818705      -1.3787323720   3.860222406388e-02   7.839593800695e-02   3.599023630553e-02
H        -1.4831318855       0.9270848642      -0.6046207052  -1.122708452501e-02  -4.158634026650e-02  -3.107177274782e-02
7
Properties=species:S:1:pos:R:3:forces:R:3 energy=-6.997769782816e+02 dipole="9.7249974503e-02 2.5172285437e-01 -1.9460433637e+00" quadrupole="-2.4637529104e+01 -3.3953695771e+00 -1.0356122287e+00 -3.3953695771e+00 -2.9315487028e+01 -3.2013441732e-01 -1.0356122287e+00 -3.2013441732e-01 -2.4313128414e+01" polarizability="3.6202114590e+01 -1.1100427145e+00 1.0855529904e+00 -1.1100427145e+00 4.0086175109e+01 -9.3330785819e-01 1.0855529904e+00 -9.3330785819e-01 3.8305381774e+01" charge=0 multiplicity=1 method=wB97M-V basis=def2-svpd config_type=h2so4 sample_index=15 temperature=300.0 units=atomic
S         0.0057403711      -0.0090254176       0.1249976298  -4.795111222586e-02  -3.114696979390e-02   8.889663898169e-02
O         0.0520526005       1.2696860771       0.8284274651  -1.166921033161e-02  -1.265954694790e-02  -8.699003538013e-03
O         0.0011661702      -1.2879881045       0.8910751768  -3.626220671426e-03   4.175668222709e-02  -3.511849071490e-02
O         1.2038155118       0.0835746010      -0.7850559643   6.456707407643e-02   7.987691778155e-03  -5.545319548377e-02
O        -1.2635873407      -0.0750224766      -0.8906584512  -3.683353127776e-03   6.648816916907e-02  -1.987356688557e-02
H         1.3612295733      -0.4856163290      -1.5544325650  -8.282408245622e-03  -6.801965605761e-03   6.626421703523e-03
H        -1.4382897067       0.9291984122      -1.2328149636   1.061418551027e-02  -6.565853587163e-02   2.355498082669e-02
7
Properties=species:S:1:pos:R:3:forces:R:3 energy=-6.997708835114e+02 dipole="-2.2831920834e-01 -8.4907463739e-03 -1.8071935649e+00" quadrupole="-2.4289577015e+01 -3.7935530481e+00 9.4021878641e-01 -3.7935530481e+00 -2.8605454093e+01 -3.7165416863e-01 9.4021878641e-01 -3.7165416863e-01 -2.4460450143e+01" polarizability="3.4690171617e+01 -1.7628228798e+00 1.3302505632e+00 -1.7628228798e+00 3.8626042851e+01 -9.4193174899e-02 1.3302505632e+00 -9.4193174899e-02 3.7509985351e+01" charge=0 multiplicity=1 method=wB97M-V basis=def2-svpd config_type=h2so4 sample_index=16 temperature=300.0 units=atomic
S        -0.0097051941       0.0155707716       0.1458624082   1.358348912909e-02   5.741614626246e-02   4.172912459411e-02
O         0.0265197472       1.2656794150       0.8954232338  -4.641936296927e-03  -1.160946769843e-02  -1.974269558796e-02
O        -0.0046993491      -1.2239149097       0.8047613197  -1.635803479628e-03  -5.681050287422e-02   3.361843728894e-02
O         1.1772230424       0.0399669460      -0.8484794285   4.755391325623e-02  -4.811334905428e-03  -3.764124942040e-02
O        -1.1685155308      -0.1083282185      -0.8499873225  -8.432615017638e-02   6.548272663672e-02  -8.598295111896e-02
H         1.3086177075      -0.8409731654      -1.2798118757  -3.413196887797e-03   1.591813868464e-02   1.044473428606e-02
H        -1.4846147901       0.7626412182      -1.4824410464   3.283907408606e-02  -6.550436638745e-02   5.744385221170e-02
7
Properties=species:S:1:pos:R:3:forces:R:3 energy=-6.997805437919e+02 dipole="-2.5606761270e-01 1.8651202445e-01 -1.3547983743e+00" quadrupole="-2.4858053836e+01 -3.6681436354e+00 1.2111497934e+00 -3.6681436354e+00 -2.8496978716e+01 -3.7391418125e-01 1.2111497934e+00 -3.7391418125e-01 -2.5862414671e+01" polarizability="3.7599077639e+01 -7.8590303864e-01 1.1745551838e+00 -7.8590303864e-01 3.9358539185e+01 -9.2005726474e-02 1.1745551838e+00 -9.2005726474e-02 3.8315858933e+01" charge=0 multiplicity=1 method=wB97M-V basis=def2-svpd config_type=h2so4 sample_index=17 temperature=300.0 units=atomic
S        -0.0112603767       0.0431477970       0.1582569707   8.087983721156e-03  -2.622771947206e-02   1.120327080894e-02
O         0.0357830153       1.2838294214       0.9136883747  -7.408831560586e-03  -1.127012413945e-02  -2.150373707748e-02
O        -0.0084306106      -1.2718853918       0.8117208028   1.163209297703e-03   2.500556344832e-02  -9.662669955553e-03
O         1.2700726678       0.0350476862      -0.8860421436  -3.182205883002e-02   1.203608718493e-01   3.878768582074e-02
O        -1.2621865987      -0.1275010853      -0.8823306210  -7.730788852221e-03   5.229290027923e-02  -1.848828912175e-02
H         1.3360528756      -0.8254540614      -1.0600009348   1.824770164123e-02  -1.198348701633e-01  -3.081102669946e-02
H        -1.5378362021       0.7290920570      -1.4037238993   1.944030610813e-02  -4.026333812375e-02   3.046532415850e-02
7
Properties=species:S:1:pos:R:3:forces:R:3 energy=-6.997739360201e+02 dipole="-2.6901790449e-01 4.1565962937e-02 -1.5972143602e+00" quadrupole="-2.6998533357e+01 -2.5630038729e+00 2.8898895989e-01 -2.5630038729e+00 -2.9395978438e+01 8.2744682531e-02 2.8898895989e-01 8.2744682531e-02 -2.3941563241e+01" polarizability="3.6678997847e+01 1.0397055029e+00 -9.4514939412e-01 1.0397055029e+00 3.9617600999e+01 1.0070591372e-01 -9.4514939412e-01 1.0070591372e-01 3.9286960586e+01" charge=0 multiplicity=1 method=wB97M-V basis=def2-svpd config_type=h2so4 sample_index=18 temperature=300.0 units=atomic
S        -0.0192987197      -0.0164910460       0.1739346725   3.753494660886e-02  -5.629446662675e-03   1.915290463954e-02
O         0.0850118956       1.2783011939       0.8108197453  -1.872460073661e-02  -4.938870971614e-03   9.028504365807e-03
O        -0.0867904660      -1.2968982276       0.8770013810   9.993649265633e-03   2.491217416956e-02  -1.428125317217e-02
O         1.2906682864       0.1693799187      -0.8699110255  -5.495390614596e-02  -8.027428515519e-02  -4.908857364450e-02
O        -1.2385299825      -0.1247752943      -0.8612876935   2.767922161826e-03  -3.015973124940e-02   1.703910588924e-02
H         1.0153777537      -0.5689476680      -1.6306254140   3.269633333572e-02   5.065288043960e-02   4.918749589017e-02
H        -1.2049873529       0.6812073096      -1.3175557685  -9.312302540345e-03   4.543337737558e-02  -3.099653091503e-02
7
Properties=species:S:1:pos:R:3:forces:R:3 energy=-6.997818268291e+02 dipole="7.8326400308e-03 5.6874584390e-02 -1.4729721332e+00" quadrupole="-2.3207566491e+01 -4.4321786691e+00 9.0276154251e-01 -4.4321786691e+00 -2.8550424123e+01 -8.1944910815e-01 9.0276154251e-01 -8.1944910815e-01 -2.6010796840e+01" polarizability="3.7928164978e+01 -1.9070515098e+00 2.0390141975e+00 -1.9070515098e+00 3.9545937055e+01 -8.3462836204e-01 2.0390141975e+00 -8.3462836204e-01 3.7100230815e+01" charge=0 multiplicity=1 method=wB97M-V basis=def2-svpd config_type=h2so4 sample_index=19 temperature=300.0 units=atomic
S        -0.0088215223       0.0117897777       0.1286204369  -1.240403212149e-02   9.387717544793e-03   2.974775228608e-02
O         0.0473835366       1.2665807856       0.8502644463  -1.258587168268e-02  -1.636170740426e-03  -8.912798447252e-03
O         0.0207088691      -1.2608503621       0.8048067692  -6.394551818558e-03  -8.260546489861e-03   1.443063039002e-03
O         1.2503510358       0.0545869534      -0.8042643814   1.719486792459e-02   6.526824714435e-03  -2.787270869175e-02
O        -1.3031844928      -0.0844903081      -0.8459404801  -1.456030758985e-02   6.693718456645e-02  -4.165572745889e-02
H         1.6253283202      -0.8278157546      -0.9179058139  -1.006380390891e-03  -5.140378164558e-03  -1.002084410220e-03
H        -1.5901994225       0.8384219069      -1.3944744069   2.974201710003e-02  -6.777480781058e-02   4.818705398907e-02
7
Properties=species:S:1:pos:R:3:forces:R:3 energy=-6.997791457554e+02 dipole="-1.4902985032e-01 -7.4884612632e-02 -1.2749203690e+00" quadrupole="-2.3452120372e+01 -4.5358285783e+00 -5.0086521881e-02 -4.5358285783e+00 -2.8579750628e+01 -9.6724856419e-02 -5.0086521881e-02 -9.6724856419e-02 -2.6864893987e+01" polarizability="3.8139568658e+01 -4.1348343709e-01 4.8374938143e-01 -4.1348343709e-01 4.0342111612e+01 2.5046327706e-01 4.8374938143e-01 2.5046327706e-01 3.8693506039e+01" charge=0 multiplicity=1 method=wB97M-V basis=def2-svpd config_type=h2so4 sample_index=20 temperature=300.0 units=atomic