5
ch4 optimized wB97M-V/def2-svpd energy=-4.0443540765e+01
C         0.0000000000       0.0000000000      -0.0000000000
H         0.6325809609       0.6325809609       0.6325809609
H        -0.6325809609      -0.6325809609       0.6325809609
H        -0.6325809609       0.6325809609      -0.6325809609
H         0.6325809609      -0.6325809609      -0.6325809609
