3
co2 optimized wB97M-V/def2-svpd energy=-1.8840982179e+02
C         0.0000000000       0.0000000000      -0.0000000000
O        -0.0000000000       0.0000000000       1.1612371529
O         0.0000000000       0.0000000000      -1.1612371529
