3
h2o optimized wB97M-V/def2-svpd energy=-7.6347153676e+01
O        -0.0000000000       0.0000425588       0.1145365461
H        -0.0000000000       0.7645558698      -0.4698176205
H        -0.0000000000      -0.7645997610      -0.4696511174
