7
h2so4 optimized wB97M-V/def2-svpd energy=-6.9980185689e+02
S         0.0000000000       0.0000000000       0.1593096745
O        -0.0129788781       1.2778991396       0.8283443442
O         0.0129788781      -1.2778991396       0.8283443442
O         1.2480437863       0.0492194700      -0.8598099050
O        -1.2480437863      -0.0492194699      -0.8598099050
H         1.4938634947      -0.8596720583      -1.0956499081
H        -1.4938634947       0.8596720583      -1.0956499081
