4
h3o+ optimized wB97M-V/def2-svpd energy=-7.6615616165e+01
O        -0.0000000000       0.0004120834       0.0605216629
H        -0.0000000000       0.9477129575      -0.1953229624
H         0.8203991490      -0.4732585531      -0.1952567394
H        -0.8203991490      -0.4732585531      -0.1952567394
