2
hf optimized wB97M-V/def2-svpd energy=-1.0034454777e+02
F         0.0000000000       0.0000000000       0.0910845464
H        -0.0000000000       0.0000000000      -0.8316712595
