6
hso4- optimized wB97M-V/def2-svpd energy=-6.9930124586e+02
S         0.1450824213       0.0182366650       0.0000000000
O        -1.5404616777       0.0657055068       0.0000000000
O         0.4846087672       1.4488380023       0.0000000000
O         0.4783566060      -0.7184346294       1.2393049516
O         0.4783566060      -0.7184346294      -1.2393049516
H        -1.8095535852      -0.8616676523       0.0000000000
