4
nh3 optimized wB97M-V/def2-svpd energy=-5.6486862237e+01
N         0.0000000000      -0.0000436206       0.1084087044
H         0.0000000000       0.9446597132      -0.2656801655
H         0.8180968722      -0.4723199189      -0.2658596007
H        -0.8180968722      -0.4723199189      -0.2658596007
