2
oh- optimized wB97M-V/def2-svpd energy=-7.5720900282e+01
O         0.0000000000       0.0000000000       0.1052720350
H         0.0000000000      -0.0000000000      -0.8595469989
