2
oh_radical optimized wB97M-V/def2-svpd energy=-7.5654223525e+01
O         0.0000000000      -0.0000000000       0.1104201666
H        -0.0000000000       0.0000000000      -0.8648001415
