5
so42- optimized wB97M-V/def2-svpd energy=-6.9858567509e+02
S         0.0000000000       0.0000000000       0.0000000000
O         0.8792472415       0.8792472415       0.8792472415
O        -0.8792472415      -0.8792472415       0.8792472415
O        -0.8792472415       0.8792472416      -0.8792472415
O         0.8792472415      -0.8792472415      -0.8792472415
