
    -----------------------------------------------------------------------
          Psi4: An Open-Source Ab Initio Electronic Structure Package
                               Psi4 1.11 release

                         Git: Rev {} zzzzzzz 


    D. G. A. Smith, L. A. Burns, A. C. Simmonett, R. M. Parrish,
    M. C. Schieber, R. Galvelis, P. Kraus, H. Kruse, R. Di Remigio,
    A. Alenaizan, A. M. James, S. Lehtola, J. P. Misiewicz, M. Scheurer,
    R. A. Shaw, J. B. Schriber, Y. Xie, Z. L. Glick, D. A. Sirianni,
    J. S. O'Brien, J. M. Waldrop, A. Kumar, E. G. Hohenstein,
    B. P. Pritchard, B. R. Brooks, H. F. Schaefer III, A. Yu. Sokolov,
    K. Patkowski, A. E. DePrince III, U. Bozkaya, R. A. King,
    F. A. Evangelista, J. M. Turney, T. D. Crawford, C. D. Sherrill,
    J. Chem. Phys. 152(18) 184108 (2020). https://doi.org/10.1063/5.0006002

                            Additional Code Authors
    E. T. Seidl, C. L. Janssen, E. F. Valeev, M. L. Leininger,
    J. F. Gonthier, R. M. Richard, H. R. McAlexander, M. Saitow, X. Wang,
    P. Verma, M. H. Lechner, A. Jiang, S. Behnle, A. G. Heide,
    M. F. Herbst, D. L. Poole, T. Győri, E. C. Mitchell, J. P. Pederson,
    and A. M. Wallace

             Previous Authors, Complete List of Code Contributors,
                       and Citations for Specific Modules
    https://github.com/psi4/psi4/blob/master/codemeta.json
    https://github.com/psi4/psi4/graphs/contributors
    https://psicode.org/psi4manual/master/introduction.html#citing-psifour

    -----------------------------------------------------------------------


    Psi4 started on: Sunday, 19 July 2026 05:43PM

    Process ID: 92799
    Host:       PNNL-KM3X724WWL
    PSIDATADIR: /opt/miniconda3/envs/rsfff/share/psi4
    Memory:     7.5 GiB
    Threads:    14
    Addons:     a̶d̶c̶c̶, a̶m̶b̶i̶t̶, b̶s̶e̶, c̶c̶t̶3̶, c̶f̶o̶u̶r̶, c̶h̶e̶m̶p̶s̶2̶, c̶p̶p̶e̶, d̶d̶x̶,
                d̶f̶t̶d̶3̶, d̶f̶t̶d̶4̶, dkh, ecpint, einsums, f̶o̶r̶t̶e̶, gauxc, g̶c̶p̶,
                g̶d̶m̶a̶, g̶e̶o̶m̶e̶t̶r̶i̶c̶, g̶p̶u̶_̶d̶f̶c̶c̶, i̶n̶t̶e̶g̶r̶a̶t̶o̶r̶x̶x̶,
                i̶p̶i̶, l̶i̶b̶e̶f̶p̶, m̶d̶i̶, m̶p̶2̶d̶, m̶r̶c̶c̶, ooo,
                o̶p̶e̶n̶f̶e̶r̶m̶i̶o̶n̶p̶s̶i̶4̶, pcmsolver, p̶s̶i̶4̶f̶o̶c̶k̶c̶i̶, p̶s̶i̶x̶a̶s̶,
                p̶y̶e̶i̶n̶s̶u̶m̶s̶, r̶e̶s̶p̶, s̶i̶m̶i̶n̶t̶, s̶n̶s̶m̶p̶2̶,
                v̶2̶r̶d̶m̶_̶c̶a̶s̶s̶c̶f̶

Scratch directory: /tmp/
   => Libint2 <=

    Primary   basis highest AM E, G, H:  7, 6, 3
    Auxiliary basis highest AM E, G, H:  7, 7, 4
    Onebody   basis highest AM E, G, H:  -, -, -
    Solid Harmonics ordering:            Gaussian

*** tstart() called on PNNL-KM3X724WWL
*** at Sun Jul 19 17:43:16 2026

   => Loading Basis Set <=

    Name: DEF2-SVPD
    Role: ORBITAL
    Keyword: BASIS
    atoms 1 entry H          line    14 file /opt/miniconda3/envs/rsfff/share/psi4/basis/def2-svpd.gbs 


         ---------------------------------------------------------
                                   SCF
               by Justin Turney, Rob Parrish, Andy Simmonett
                          and Daniel G. A. Smith
                              UKS Reference
                       14 Threads,   7629 MiB Core
         ---------------------------------------------------------

  ==> Geometry <==

    Molecular point group: c1
    Geometry (in Angstrom), charge = 0, multiplicity = 2:

       Center              X                  Y                   Z               Mass       
    ------------   -----------------  -----------------  -----------------  -----------------
         H            0.000000000000     0.000000000000     0.000000000000     1.007825032230

  Running in c1 symmetry.

  Rotational constants: A = ************  B = ************  C = ************ [cm^-1]
  Rotational constants: A = ************  B = ************  C = ************ [MHz]
  Nuclear repulsion =    0.000000000000000

  Charge       = 0
  Multiplicity = 2
  Electrons    = 1
  Nalpha       = 1
  Nbeta        = 0

  ==> Algorithm <==

  SCF Algorithm Type is DF.
  DIIS enabled.
  MOM disabled.
  Fractional occupation disabled.
  Guess Type is CORE.
  Energy threshold   = 1.00e-09
  Density threshold  = 1.00e-09
  Integral threshold = 1.00e-12

  ==> Primary Basis <==

  Basis Set: DEF2-SVPD
    Blend: DEF2-SVPD
    Number of shells: 4
    Number of basis functions: 8
    Number of Cartesian functions: 8
    Spherical Harmonics?: true
    Max angular momentum: 1

  ==> DFT Potential <==

   => LibXC <=

    Version 7.0.0
    S. Lehtola, C. Steigemann, M. J.T. Oliveira, and M. A.L. Marques.,  SoftwareX 7, 1–5 (2018) (10.1016/j.softx.2017.11.002)

   => Composite Functional: B3LYP <= 

    B3LYP Hyb-GGA Exchange-Correlation Functional

    P. J. Stephens, F. J. Devlin, C. F. Chabalowski, and M. J. Frisch.,  J. Phys. Chem. 98, 11623 (1994) (10.1021/j100096a001)

    Deriv               =              1
    GGA                 =           TRUE
    Meta                =          FALSE

    Exchange Hybrid     =           TRUE
    MP2 Hybrid          =          FALSE

   => Exchange Functionals <=

    0.0800   Slater exchange
    0.7200         Becke 88

   => Exact (HF) Exchange <=

    0.2000               HF 

   => Correlation Functionals <=

    0.1900   Vosko, Wilk & Nusair (VWN5_RPA)
    0.8100   Lee, Yang & Parr

   => LibXC Density Thresholds  <==

    XC_HYB_GGA_XC_B3LYP:  1.00E-15 

   => Molecular Quadrature <=

    Radial Scheme          =       TREUTLER
    Pruning Scheme         =           NONE
    Nuclear Scheme         =       TREUTLER

    Blocking Scheme        =         OCTREE
    BS radius alpha        =              1
    Pruning alpha          =              1
    Radial Points          =             75
    Spherical Points       =            302
    Total Points           =          22348
    Total Blocks           =            213
    Max Points             =            252
    Max Functions          =              8
    Weights Tolerance      =       1.00E-15

   => Loading Basis Set <=

    Name: (DEF2-SVPD AUX)
    Role: JKFIT
    Keyword: DF_BASIS_SCF
    atoms 1 entry H          line    18 file /opt/miniconda3/envs/rsfff/share/psi4/basis/def2-universal-jkfit.gbs 

  ==> Integral Setup <==

  DFHelper Memory: AOs need 0.000 GiB; user supplied 5.583 GiB. 
  SCF_SUBTYPE=INCORE selected. In-core MEM_DF algorithm will be used.
  Using in-core AOs.

  ==> MemDFJK: Density-Fitted J/K Matrices <==

    J tasked:                   Yes
    K tasked:                   Yes
    wK tasked:                   No
    OpenMP threads:              14
    Memory [MiB]:              5716
    Algorithm:                 Core
    Schwarz Cutoff:           1E-12
    Mask sparsity (%):       0.0000
    Fitting Condition:        1E-10

   => Auxiliary Basis Set <=

  Basis Set: (DEF2-SVPD AUX)
    Blend: DEF2-UNIVERSAL-JKFIT
    Number of shells: 6
    Number of basis functions: 18
    Number of Cartesian functions: 20
    Spherical Harmonics?: true
    Max angular momentum: 2

  Cached 100.0% of DFT collocation blocks in 0.005 [GiB].

  Minimum eigenvalue in the overlap matrix is 3.1520017525E-01.
  Reciprocal condition number of the overlap matrix is 1.8708464390E-01.
    Using symmetric orthogonalization.

  ==> Pre-Iterations <==

  SCF Guess: Core (One-Electron) Hamiltonian.

   -------------------------------------------------------
    Irrep   Nso     Nmo     Nalpha   Nbeta   Ndocc  Nsocc
   -------------------------------------------------------
     A          8       8       1       0       0       1
   -------------------------------------------------------
    Total       8       8       1       0       0       1
   -------------------------------------------------------

  ==> Iterations <==

                           Total Energy        Delta E     RMS |[F,P]|

   @DF-UKS iter   1:    -0.50130645796810   -5.01306e-01   2.93589e-04 DIIS/ADIIS
   @DF-UKS iter   2:    -0.50131411380473   -7.65584e-06   7.54971e-06 DIIS
   @DF-UKS iter   3:    -0.50131411887059   -5.06586e-09   1.19577e-09 DIIS
   @DF-UKS iter   4:    -0.50131411887059   -3.33067e-16   9.72280e-14 DIIS
  Energy and wave function converged.


  ==> Post-Iterations <==

   Electrons on quadrature grid:
      Nalpha   =    1.0000000000 ; deviation = 2.787e-12
      Nbeta    =    0.0000000000 ; deviation = 0.000e+00
      Ntotal   =    1.0000000000 ; deviation = 2.787e-12 

   @Spin Contamination Metric:   0.000000000E+00
   @S^2 Expected:                7.500000000E-01
   @S^2 Observed:                7.500000000E-01
   @S   Expected:                5.000000000E-01
   @S   Observed:                5.000000000E-01

    Orbital Energies [Eh]
    ---------------------

    Alpha Occupied:                                                       

       1A     -0.319606  

    Alpha Virtual:                                                        

       2A      0.149578     3A      0.149578     4A      0.149578  
       5A      0.419608     6A      1.560199     7A      1.560199  
       8A      1.560199  

    Beta Occupied:                                                        

    

    Beta Virtual:                                                         

       1A     -0.015658     2A      0.221508     3A      0.221508  
       4A      0.221508     5A      0.661816     6A      1.806741  
       7A      1.806741     8A      1.806741  

    Final Occupation by Irrep:
              A 
    DOCC [     0 ]
    SOCC [     1 ]
    NA   [     1 ]
    NB   [     0 ]

  @DF-UKS Final Energy:    -0.50131411887059

   => Energetics <=

    Nuclear Repulsion Energy =              0.0000000000000000
    One-Electron Energy =                  -0.4992711608966971
    Two-Electron Energy =                   0.2490979554525657
    DFT Exchange-Correlation Energy =      -0.2511409134264571
    Empirical Dispersion Energy =           0.0000000000000000
    VV10 Nonlocal Energy =                  0.0000000000000000
    Total Energy =                         -0.5013141188705884

  UHF NO Occupations:
  HONO-0 :    1  A 1.0000000
  LUNO+0 :    2  A 0.0000000
  LUNO+1 :    3  A 0.0000000
  LUNO+2 :    4  A 0.0000000
  LUNO+3 :    5  A -0.0000000


Computation Completed


Properties will be evaluated at   0.000000,   0.000000,   0.000000 [a0]

Properties computed using the SCF density matrix


 Multipole Moments:

 ------------------------------------------------------------------------------------
     Multipole            Electronic (a.u.)      Nuclear  (a.u.)        Total (a.u.)
 ------------------------------------------------------------------------------------

 L = 1.  Multiply by 2.5417464519 to convert [e a0] to [Debye]
 Dipole X            :          0.0000000            0.0000000            0.0000000
 Dipole Y            :         -0.0000000            0.0000000           -0.0000000
 Dipole Z            :         -0.0000000            0.0000000           -0.0000000
 Magnitude           :                                                    0.0000000

 ------------------------------------------------------------------------------------

*** tstop() called on PNNL-KM3X724WWL at Sun Jul 19 17:43:17 2026
Module time:
	user time   =       0.09 seconds =       0.00 minutes
	system time =       0.05 seconds =       0.00 minutes
	total time  =          1 seconds =       0.02 minutes
Total time:
	user time   =       0.09 seconds =       0.00 minutes
	system time =       0.05 seconds =       0.00 minutes
	total time  =          1 seconds =       0.02 minutes

Scratch directory: /tmp/
   => Libint2 <=

    Primary   basis highest AM E, G, H:  7, 6, 3
    Auxiliary basis highest AM E, G, H:  7, 7, 4
    Onebody   basis highest AM E, G, H:  -, -, -
    Solid Harmonics ordering:            Gaussian

*** tstart() called on PNNL-KM3X724WWL
*** at Sun Jul 19 17:43:17 2026

   => Loading Basis Set <=

    Name: DEF2-SVPD
    Role: ORBITAL
    Keyword: BASIS
    atoms 1 entry O          line   149 file /opt/miniconda3/envs/rsfff/share/psi4/basis/def2-svpd.gbs 


         ---------------------------------------------------------
                                   SCF
               by Justin Turney, Rob Parrish, Andy Simmonett
                          and Daniel G. A. Smith
                              UKS Reference
                       14 Threads,   7629 MiB Core
         ---------------------------------------------------------

  ==> Geometry <==

    Molecular point group: c1
    Geometry (in Angstrom), charge = 0, multiplicity = 3:

       Center              X                  Y                   Z               Mass       
    ------------   -----------------  -----------------  -----------------  -----------------
         O            0.000000000000     0.000000000000     0.000000000000    15.994914619570

  Running in c1 symmetry.

  Rotational constants: A = ************  B = ************  C = ************ [cm^-1]
  Rotational constants: A = ************  B = ************  C = ************ [MHz]
  Nuclear repulsion =    0.000000000000000

  Charge       = 0
  Multiplicity = 3
  Electrons    = 8
  Nalpha       = 5
  Nbeta        = 3

  ==> Algorithm <==

  SCF Algorithm Type is DF.
  DIIS enabled.
  MOM disabled.
  Fractional occupation disabled.
  Guess Type is CORE.
  Energy threshold   = 1.00e-09
  Density threshold  = 1.00e-09
  Integral threshold = 1.00e-12

  ==> Primary Basis <==

  Basis Set: DEF2-SVPD
    Blend: DEF2-SVPD
    Number of shells: 9
    Number of basis functions: 23
    Number of Cartesian functions: 25
    Spherical Harmonics?: true
    Max angular momentum: 2

  ==> DFT Potential <==

   => LibXC <=

    Version 7.0.0
    S. Lehtola, C. Steigemann, M. J.T. Oliveira, and M. A.L. Marques.,  SoftwareX 7, 1–5 (2018) (10.1016/j.softx.2017.11.002)

   => Composite Functional: B3LYP <= 

    B3LYP Hyb-GGA Exchange-Correlation Functional

    P. J. Stephens, F. J. Devlin, C. F. Chabalowski, and M. J. Frisch.,  J. Phys. Chem. 98, 11623 (1994) (10.1021/j100096a001)

    Deriv               =              1
    GGA                 =           TRUE
    Meta                =          FALSE

    Exchange Hybrid     =           TRUE
    MP2 Hybrid          =          FALSE

   => Exchange Functionals <=

    0.0800   Slater exchange
    0.7200         Becke 88

   => Exact (HF) Exchange <=

    0.2000               HF 

   => Correlation Functionals <=

    0.1900   Vosko, Wilk & Nusair (VWN5_RPA)
    0.8100   Lee, Yang & Parr

   => LibXC Density Thresholds  <==

    XC_HYB_GGA_XC_B3LYP:  1.00E-15 

   => Molecular Quadrature <=

    Radial Scheme          =       TREUTLER
    Pruning Scheme         =           NONE
    Nuclear Scheme         =       TREUTLER

    Blocking Scheme        =         OCTREE
    BS radius alpha        =              1
    Pruning alpha          =              1
    Radial Points          =             75
    Spherical Points       =            302
    Total Points           =          22348
    Total Blocks           =            224
    Max Points             =            252
    Max Functions          =             23
    Weights Tolerance      =       1.00E-15

   => Loading Basis Set <=

    Name: (DEF2-SVPD AUX)
    Role: JKFIT
    Keyword: DF_BASIS_SCF
    atoms 1 entry O          line   318 file /opt/miniconda3/envs/rsfff/share/psi4/basis/def2-universal-jkfit.gbs 

  ==> Integral Setup <==

  DFHelper Memory: AOs need 0.001 GiB; user supplied 5.573 GiB. 
  SCF_SUBTYPE=INCORE selected. In-core MEM_DF algorithm will be used.
  Using in-core AOs.

  ==> MemDFJK: Density-Fitted J/K Matrices <==

    J tasked:                   Yes
    K tasked:                   Yes
    wK tasked:                   No
    OpenMP threads:              14
    Memory [MiB]:              5707
    Algorithm:                 Core
    Schwarz Cutoff:           1E-12
    Mask sparsity (%):       0.0000
    Fitting Condition:        1E-10

   => Auxiliary Basis Set <=

  Basis Set: (DEF2-SVPD AUX)
    Blend: DEF2-UNIVERSAL-JKFIT
    Number of shells: 25
    Number of basis functions: 77
    Number of Cartesian functions: 93
    Spherical Harmonics?: true
    Max angular momentum: 4

  Cached 100.0% of DFT collocation blocks in 0.015 [GiB].

  Minimum eigenvalue in the overlap matrix is 8.0241971007E-02.
  Reciprocal condition number of the overlap matrix is 3.3278560532E-02.
    Using symmetric orthogonalization.

  ==> Pre-Iterations <==

  SCF Guess: Core (One-Electron) Hamiltonian.

   -------------------------------------------------------
    Irrep   Nso     Nmo     Nalpha   Nbeta   Ndocc  Nsocc
   -------------------------------------------------------
     A         23      23       5       3       3       2
   -------------------------------------------------------
    Total      23      23       5       3       3       2
   -------------------------------------------------------

  ==> Iterations <==

                           Total Energy        Delta E     RMS |[F,P]|

   @DF-UKS iter   1:   -72.31942346637905   -7.23194e+01   7.89006e-02 DIIS/ADIIS
   @DF-UKS iter   2:   -71.25968393026480    1.05974e+00   9.52922e-02 DIIS/ADIIS
   @DF-UKS iter   3:   -75.00261823042798   -3.74293e+00   4.29134e-03 DIIS/ADIIS
   @DF-UKS iter   4:   -75.00908157042416   -6.46334e-03   7.05822e-04 DIIS/ADIIS
   @DF-UKS iter   5:   -75.00923550482391   -1.53934e-04   1.30424e-04 DIIS/ADIIS
   @DF-UKS iter   6:   -75.00924015168530   -4.64686e-06   5.29984e-06 DIIS
   @DF-UKS iter   7:   -75.00924016441395   -1.27286e-08   8.44458e-07 DIIS
   @DF-UKS iter   8:   -75.00924016464830   -2.34351e-10   5.79997e-08 DIIS
   @DF-UKS iter   9:   -75.00924016465147   -3.16902e-12   2.29235e-08 DIIS
   @DF-UKS iter  10:   -75.00924016465385   -2.37321e-12   2.28222e-08 DIIS
   @DF-UKS iter  11:   -75.00924016465628   -2.43006e-12   2.28211e-08 DIIS
   @DF-UKS iter  12:   -75.00924016502789   -3.71614e-10   2.28253e-08 DIIS
   @DF-UKS iter  13:   -75.00924016691597   -1.88808e-09   4.18965e-08 DIIS
   @DF-UKS iter  14:   -75.00924017540088   -8.48490e-09   5.35439e-06 DIIS
   @DF-UKS iter  15:   -75.00924017719277   -1.79189e-09   2.25167e-06 DIIS
   @DF-UKS iter  16:   -75.00924012984228    4.73505e-08   1.41953e-05 DIIS
   @DF-UKS iter  17:   -75.00924014525715   -1.54149e-08   1.21027e-05 DIIS
   @DF-UKS iter  18:   -75.00924014584525   -5.88102e-10   1.20148e-05 DIIS
   @DF-UKS iter  19:   -75.00924014639475   -5.49491e-10   1.19320e-05 DIIS
   @DF-UKS iter  20:   -75.00924015025346   -3.85872e-09   1.13309e-05 DIIS
   @DF-UKS iter  21:   -75.00924014618580    4.06766e-09   1.19631e-05 DIIS
   @DF-UKS iter  22:   -75.00924017411413   -2.79283e-08   5.86838e-06 DIIS
   @DF-UKS iter  23:   -75.00924017343844    6.75684e-10   6.14445e-06 DIIS
   @DF-UKS iter  24:   -75.00924017156315    1.87529e-09   4.28200e-07 DIIS
   @DF-UKS iter  25:   -75.00924017159595   -3.27987e-11   6.60363e-07 DIIS
   @DF-UKS iter  26:   -75.00924017980479   -8.20884e-09   3.65063e-07 DIIS
   @DF-UKS iter  27:   -75.00924018147671   -1.67192e-09   4.03052e-06 DIIS
   @DF-UKS iter  28:   -75.00924018532352   -3.84681e-09   1.25373e-06 DIIS
   @DF-UKS iter  29:   -75.00924017416584    1.11577e-08   6.24180e-06 DIIS
   @DF-UKS iter  30:   -75.00924017007159    4.09425e-09   7.30909e-06 DIIS
   @DF-UKS iter  31:   -75.00924016880172    1.26987e-09   7.60563e-06 DIIS
   @DF-UKS iter  32:   -75.00924017069039   -1.88867e-09   7.15138e-06 DIIS
   @DF-UKS iter  33:   -75.00924017431659   -3.62620e-09   6.25794e-06 DIIS
   @DF-UKS iter  34:   -75.00924017953683   -5.22024e-09   4.65279e-06 DIIS
   @DF-UKS iter  35:   -75.00924018562476   -6.08793e-09   1.14270e-06 DIIS
   @DF-UKS iter  36:   -75.00924018606156   -4.36799e-10   1.47891e-07 DIIS
   @DF-UKS iter  37:   -75.00924018604289    1.86731e-11   1.07832e-07 DIIS
   @DF-UKS iter  38:   -75.00924018586522    1.77664e-10   9.33536e-08 DIIS
   @DF-UKS iter  39:   -75.00924018592687   -6.16467e-11   1.38869e-07 DIIS
   @DF-UKS iter  40:   -75.00924018588739    3.94778e-11   9.49811e-08 DIIS
   @DF-UKS iter  41:   -75.00924018582076    6.66347e-11   8.99743e-08 DIIS
   @DF-UKS iter  42:   -75.00924018581979    9.66338e-13   1.12140e-07 DIIS
   @DF-UKS iter  43:   -75.00924018485608    9.63709e-10   7.99493e-08 DIIS
   @DF-UKS iter  44:   -75.00924018533570   -4.79616e-10   4.35334e-08 DIIS
   @DF-UKS iter  45:   -75.00924018466064    6.75058e-10   3.39750e-07 DIIS
   @DF-UKS iter  46:   -75.00924018288924    1.77140e-09   5.50014e-07 DIIS
   @DF-UKS iter  47:   -75.00924018385597   -9.66722e-10   4.71812e-07 DIIS
   @DF-UKS iter  48:   -75.00924018410558   -2.49614e-10   4.05734e-07 DIIS
   @DF-UKS iter  49:   -75.00924018274493    1.36065e-09   9.06205e-07 DIIS
   @DF-UKS iter  50:   -75.00924018286265   -1.17723e-10   7.09544e-07 DIIS
   @DF-UKS iter  51:   -75.00924018281057    5.20828e-11   6.52672e-07 DIIS
   @DF-UKS iter  52:   -75.00924018438967   -1.57910e-09   1.66680e-07 DIIS
   @DF-UKS iter  53:   -75.00924018196513    2.42454e-09   1.17960e-06 DIIS
   @DF-UKS iter  54:   -75.00924018100957    9.55552e-10   1.77492e-06 DIIS
   @DF-UKS iter  55:   -75.00924018112948   -1.19911e-10   1.58956e-06 DIIS
   @DF-UKS iter  56:   -75.00924018138784   -2.58353e-10   1.28398e-06 DIIS
   @DF-UKS iter  57:   -75.00924018202178   -6.33946e-10   5.34667e-07 DIIS
   @DF-UKS iter  58:   -75.00924018147987    5.41917e-10   1.30617e-06 DIIS
   @DF-UKS iter  59:   -75.00924018190997   -4.30106e-10   3.40413e-07 DIIS
   @DF-UKS iter  60:   -75.00924018191414   -4.16378e-12   3.07733e-07 DIIS
   @DF-UKS iter  61:   -75.00924018192988   -1.57456e-11   1.60630e-07 DIIS
   @DF-UKS iter  62:   -75.00924018193793   -8.04334e-12   2.24451e-08 DIIS
   @DF-UKS iter  63:   -75.00924018194155   -3.62377e-12   8.13684e-09 DIIS
   @DF-UKS iter  64:   -75.00924018194259   -1.03739e-12   3.64116e-09 DIIS
   @DF-UKS iter  65:   -75.00924018194257    1.42109e-14   4.91912e-10 DIIS
  Energy and wave function converged.


  ==> Post-Iterations <==

   Electrons on quadrature grid:
      Nalpha   =    5.0000000000 ; deviation = -5.582e-12
      Nbeta    =    3.0000000000 ; deviation = -5.558e-12
      Ntotal   =    8.0000000000 ; deviation = -1.114e-11 

   @Spin Contamination Metric:   3.773190196E-03
   @S^2 Expected:                2.000000000E+00
   @S^2 Observed:                2.003773190E+00
   @S   Expected:                1.000000000E+00
   @S   Observed:                1.000000000E+00

    Orbital Energies [Eh]
    ---------------------

    Alpha Occupied:                                                       

       1A    -19.294560     2A     -1.008435     3A     -0.469303  
       4A     -0.469303     5A     -0.394123  

    Alpha Virtual:                                                        

       6A      0.071760     7A      0.113911     8A      0.113911  
       9A      0.119332    10A      0.416898    11A      0.416898  
      12A      0.427218    13A      0.427218    14A      0.431876  
      15A      0.991091    16A      0.991091    17A      1.035439  
      18A      1.067085    19A      2.626159    20A      2.626159  
      21A      2.681583    22A      2.681583    23A      2.701232  

    Beta Occupied:                                                        

       1A    -19.242961     2A     -0.850957     3A     -0.341438  

    Beta Virtual:                                                         

       4A     -0.192319     5A     -0.192318     6A      0.084362  
       7A      0.123155     8A      0.137471     9A      0.137506  
      10A      0.436912    11A      0.436914    12A      0.440569  
      13A      0.441414    14A      0.441424    15A      1.063423  
      16A      1.095772    17A      1.095779    18A      1.131856  
      19A      2.770435    20A      2.770435    21A      2.778008  
      22A      2.794631    23A      2.794632  

    Final Occupation by Irrep:
              A 
    DOCC [     3 ]
    SOCC [     2 ]
    NA   [     5 ]
    NB   [     3 ]

  @DF-UKS Final Energy:   -75.00924018194257

   => Energetics <=

    Nuclear Repulsion Energy =              0.0000000000000000
    One-Electron Energy =                -103.0413638601440596
    Two-Electron Energy =                  34.8555302943870089
    DFT Exchange-Correlation Energy =      -6.8234066161855171
    Empirical Dispersion Energy =           0.0000000000000000
    VV10 Nonlocal Energy =                  0.0000000000000000
    Total Energy =                        -75.0092401819425731

  UHF NO Occupations:
  HONO-2 :    3  A 1.9988743
  HONO-1 :    4  A 1.0000000
  HONO-0 :    5  A 1.0000000
  LUNO+0 :    6  A 0.0011257
  LUNO+1 :    7  A 0.0007616
  LUNO+2 :    8  A 0.0000002
  LUNO+3 :    9  A 0.0000000


Computation Completed


Properties will be evaluated at   0.000000,   0.000000,   0.000000 [a0]

Properties computed using the SCF density matrix


 Multipole Moments:

 ------------------------------------------------------------------------------------
     Multipole            Electronic (a.u.)      Nuclear  (a.u.)        Total (a.u.)
 ------------------------------------------------------------------------------------

 L = 1.  Multiply by 2.5417464519 to convert [e a0] to [Debye]
 Dipole X            :          0.0000000            0.0000000            0.0000000
 Dipole Y            :          0.0000000            0.0000000            0.0000000
 Dipole Z            :          0.0000000            0.0000000            0.0000000
 Magnitude           :                                                    0.0000000

 ------------------------------------------------------------------------------------

*** tstop() called on PNNL-KM3X724WWL at Sun Jul 19 17:43:19 2026
Module time:
	user time   =      24.70 seconds =       0.41 minutes
	system time =       0.53 seconds =       0.01 minutes
	total time  =          2 seconds =       0.03 minutes
Total time:
	user time   =      24.81 seconds =       0.41 minutes
	system time =       0.58 seconds =       0.01 minutes
	total time  =          3 seconds =       0.05 minutes

Scratch directory: /tmp/
   => Libint2 <=

    Primary   basis highest AM E, G, H:  7, 6, 3
    Auxiliary basis highest AM E, G, H:  7, 7, 4
    Onebody   basis highest AM E, G, H:  -, -, -
    Solid Harmonics ordering:            Gaussian

*** tstart() called on PNNL-KM3X724WWL
*** at Sun Jul 19 17:43:19 2026

   => Loading Basis Set <=

    Name: DEF2-SVPD
    Role: ORBITAL
    Keyword: BASIS
    atoms 1 entry O          line   149 file /opt/miniconda3/envs/rsfff/share/psi4/basis/def2-svpd.gbs 


         ---------------------------------------------------------
                                   SCF
               by Justin Turney, Rob Parrish, Andy Simmonett
                          and Daniel G. A. Smith
                              UKS Reference
                       14 Threads,   7629 MiB Core
         ---------------------------------------------------------

  ==> Geometry <==

    Molecular point group: c1
    Geometry (in Angstrom), charge = -1, multiplicity = 2:

       Center              X                  Y                   Z               Mass       
    ------------   -----------------  -----------------  -----------------  -----------------
         O            0.000000000000     0.000000000000     0.000000000000    15.994914619570

  Running in c1 symmetry.

  Rotational constants: A = ************  B = ************  C = ************ [cm^-1]
  Rotational constants: A = ************  B = ************  C = ************ [MHz]
  Nuclear repulsion =    0.000000000000000

  Charge       = -1
  Multiplicity = 2
  Electrons    = 9
  Nalpha       = 5
  Nbeta        = 4

  ==> Algorithm <==

  SCF Algorithm Type is DF.
  DIIS enabled.
  MOM disabled.
  Fractional occupation disabled.
  Guess Type is CORE.
  Energy threshold   = 1.00e-09
  Density threshold  = 1.00e-09
  Integral threshold = 1.00e-12

  ==> Primary Basis <==

  Basis Set: DEF2-SVPD
    Blend: DEF2-SVPD
    Number of shells: 9
    Number of basis functions: 23
    Number of Cartesian functions: 25
    Spherical Harmonics?: true
    Max angular momentum: 2

  ==> DFT Potential <==

   => LibXC <=

    Version 7.0.0
    S. Lehtola, C. Steigemann, M. J.T. Oliveira, and M. A.L. Marques.,  SoftwareX 7, 1–5 (2018) (10.1016/j.softx.2017.11.002)

   => Composite Functional: B3LYP <= 

    B3LYP Hyb-GGA Exchange-Correlation Functional

    P. J. Stephens, F. J. Devlin, C. F. Chabalowski, and M. J. Frisch.,  J. Phys. Chem. 98, 11623 (1994) (10.1021/j100096a001)

    Deriv               =              1
    GGA                 =           TRUE
    Meta                =          FALSE

    Exchange Hybrid     =           TRUE
    MP2 Hybrid          =          FALSE

   => Exchange Functionals <=

    0.0800   Slater exchange
    0.7200         Becke 88

   => Exact (HF) Exchange <=

    0.2000               HF 

   => Correlation Functionals <=

    0.1900   Vosko, Wilk & Nusair (VWN5_RPA)
    0.8100   Lee, Yang & Parr

   => LibXC Density Thresholds  <==

    XC_HYB_GGA_XC_B3LYP:  1.00E-15 

   => Molecular Quadrature <=

    Radial Scheme          =       TREUTLER
    Pruning Scheme         =           NONE
    Nuclear Scheme         =       TREUTLER

    Blocking Scheme        =         OCTREE
    BS radius alpha        =              1
    Pruning alpha          =              1
    Radial Points          =             75
    Spherical Points       =            302
    Total Points           =          22348
    Total Blocks           =            224
    Max Points             =            252
    Max Functions          =             23
    Weights Tolerance      =       1.00E-15

   => Loading Basis Set <=

    Name: (DEF2-SVPD AUX)
    Role: JKFIT
    Keyword: DF_BASIS_SCF
    atoms 1 entry O          line   318 file /opt/miniconda3/envs/rsfff/share/psi4/basis/def2-universal-jkfit.gbs 

  ==> Integral Setup <==

  DFHelper Memory: AOs need 0.001 GiB; user supplied 5.573 GiB. 
  SCF_SUBTYPE=INCORE selected. In-core MEM_DF algorithm will be used.
  Using in-core AOs.

  ==> MemDFJK: Density-Fitted J/K Matrices <==

    J tasked:                   Yes
    K tasked:                   Yes
    wK tasked:                   No
    OpenMP threads:              14
    Memory [MiB]:              5707
    Algorithm:                 Core
    Schwarz Cutoff:           1E-12
    Mask sparsity (%):       0.0000
    Fitting Condition:        1E-10

   => Auxiliary Basis Set <=

  Basis Set: (DEF2-SVPD AUX)
    Blend: DEF2-UNIVERSAL-JKFIT
    Number of shells: 25
    Number of basis functions: 77
    Number of Cartesian functions: 93
    Spherical Harmonics?: true
    Max angular momentum: 4

  Cached 100.0% of DFT collocation blocks in 0.015 [GiB].

  Minimum eigenvalue in the overlap matrix is 8.0241971007E-02.
  Reciprocal condition number of the overlap matrix is 3.3278560532E-02.
    Using symmetric orthogonalization.

  ==> Pre-Iterations <==

  SCF Guess: Core (One-Electron) Hamiltonian.

   -------------------------------------------------------
    Irrep   Nso     Nmo     Nalpha   Nbeta   Ndocc  Nsocc
   -------------------------------------------------------
     A         23      23       5       4       4       1
   -------------------------------------------------------
    Total      23      23       5       4       4       1
   -------------------------------------------------------

  ==> Iterations <==

                           Total Energy        Delta E     RMS |[F,P]|

   @DF-UKS iter   1:   -70.61761372911579   -7.06176e+01   9.30746e-02 DIIS/ADIIS
   @DF-UKS iter   2:   -66.77776948506397    3.83984e+00   9.14718e-02 DIIS/ADIIS
   @DF-UKS iter   3:   -75.03744997689523   -8.25968e+00   5.98908e-03 DIIS/ADIIS
   @DF-UKS iter   4:   -75.07050377528661   -3.30538e-02   3.21784e-03 DIIS/ADIIS
   @DF-UKS iter   5:   -75.07035375977735    1.50016e-04   3.19275e-03 DIIS/ADIIS
   @DF-UKS iter   6:   -75.07041976360048   -6.60038e-05   3.14942e-03 DIIS/ADIIS
   @DF-UKS iter   7:   -75.07269475258103   -2.27499e-03   1.74997e-04 DIIS/ADIIS
   @DF-UKS iter   8:   -75.07270945121492   -1.46986e-05   1.17180e-04 DIIS/ADIIS
   @DF-UKS iter   9:   -75.07271307958837   -3.62837e-06   3.28151e-06 DIIS
   @DF-UKS iter  10:   -75.07271308260992   -3.02155e-09   2.31785e-06 DIIS
   @DF-UKS iter  11:   -75.07271308388353   -1.27361e-09   1.19102e-07 DIIS
   @DF-UKS iter  12:   -75.07271308389282   -9.29390e-12   3.68963e-08 DIIS
   @DF-UKS iter  13:   -75.07271308389950   -6.67910e-12   3.67415e-08 DIIS
   @DF-UKS iter  14:   -75.07271308410492   -2.05418e-10   3.66138e-08 DIIS
   @DF-UKS iter  15:   -75.07271310081725   -1.67123e-08   1.43769e-06 DIIS
   @DF-UKS iter  16:   -75.07271310055384    2.63412e-10   1.37806e-06 DIIS
   @DF-UKS iter  17:   -75.07271309718291    3.37093e-09   6.58845e-07 DIIS
   @DF-UKS iter  18:   -75.07271310098399   -3.80108e-09   1.16487e-06 DIIS
   @DF-UKS iter  19:   -75.07271310083240    1.51587e-10   9.40912e-07 DIIS
   @DF-UKS iter  20:   -75.07271310830207   -7.46967e-09   2.96041e-06 DIIS
   @DF-UKS iter  21:   -75.07271310786828    4.33786e-10   2.85903e-06 DIIS
   @DF-UKS iter  22:   -75.07271310768884    1.79440e-10   3.14176e-06 DIIS
   @DF-UKS iter  23:   -75.07271310698351    7.05327e-10   3.41391e-06 DIIS
   @DF-UKS iter  24:   -75.07271310816317   -1.17966e-09   2.85182e-06 DIIS
   @DF-UKS iter  25:   -75.07271311082307   -2.65990e-09   3.09487e-07 DIIS
   @DF-UKS iter  26:   -75.07271311093635   -1.13275e-10   5.17095e-07 DIIS
   @DF-UKS iter  27:   -75.07271311098403   -4.76774e-11   1.79943e-07 DIIS
   @DF-UKS iter  28:   -75.07271311081466    1.69365e-10   4.50738e-08 DIIS
   @DF-UKS iter  29:   -75.07271311039109    4.23569e-10   1.90316e-07 DIIS
   @DF-UKS iter  30:   -75.07271311012141    2.69679e-10   1.82048e-08 DIIS
   @DF-UKS iter  31:   -75.07271311000147    1.19940e-10   3.04889e-08 DIIS
   @DF-UKS iter  32:   -75.07271310975602    2.45450e-10   2.35003e-08 DIIS
   @DF-UKS iter  33:   -75.07271311015404   -3.98018e-10   1.92592e-08 DIIS
   @DF-UKS iter  34:   -75.07271311013761    1.64277e-11   2.62690e-08 DIIS
   @DF-UKS iter  35:   -75.07271311044458   -3.06969e-10   2.78197e-08 DIIS
   @DF-UKS iter  36:   -75.07271311061366   -1.69081e-10   2.10262e-08 DIIS
   @DF-UKS iter  37:   -75.07271311090918   -2.95515e-10   5.38505e-08 DIIS
   @DF-UKS iter  38:   -75.07271311382590   -2.91672e-09   1.13658e-07 DIIS
   @DF-UKS iter  39:   -75.07271311507013   -1.24423e-09   2.90787e-07 DIIS
   @DF-UKS iter  40:   -75.07271311430490    7.65226e-10   2.16284e-07 DIIS
   @DF-UKS iter  41:   -75.07271311506275   -7.57851e-10   3.25739e-07 DIIS
   @DF-UKS iter  42:   -75.07271311412116    9.41597e-10   3.37907e-07 DIIS
   @DF-UKS iter  43:   -75.07271311800962   -3.88846e-09   7.64858e-07 DIIS
   @DF-UKS iter  44:   -75.07271311330831    4.70131e-09   2.57807e-07 DIIS
   @DF-UKS iter  45:   -75.07271311989936   -6.59105e-09   8.21191e-07 DIIS
   @DF-UKS iter  46:   -75.07271312074269   -8.43329e-10   1.50704e-06 DIIS
   @DF-UKS iter  47:   -75.07271312084266   -9.99734e-11   9.05024e-07 DIIS
   @DF-UKS iter  48:   -75.07271312275583   -1.91316e-09   1.78285e-06 DIIS
   @DF-UKS iter  49:   -75.07271312235282    4.03006e-10   3.27698e-06 DIIS
   @DF-UKS iter  50:   -75.07271312341187   -1.05905e-09   1.99516e-06 DIIS
   @DF-UKS iter  51:   -75.07271312379164   -3.79771e-10   1.58440e-06 DIIS
   @DF-UKS iter  52:   -75.07271312379638   -4.73221e-12   1.40107e-06 DIIS
   @DF-UKS iter  53:   -75.07271311756482    6.23156e-09   1.28869e-06 DIIS
   @DF-UKS iter  54:   -75.07271312204364   -4.47882e-09   1.30988e-06 DIIS
   @DF-UKS iter  55:   -75.07271312311593   -1.07229e-09   2.55468e-07 DIIS
   @DF-UKS iter  56:   -75.07271312574748   -2.63155e-09   7.01560e-07 DIIS
   @DF-UKS iter  57:   -75.07271312384508    1.90241e-09   3.15117e-07 DIIS
   @DF-UKS iter  58:   -75.07271312372275    1.22327e-10   3.74000e-07 DIIS
   @DF-UKS iter  59:   -75.07271312296591    7.56842e-10   2.89619e-07 DIIS
   @DF-UKS iter  60:   -75.07271312402372   -1.05781e-09   2.37091e-07 DIIS
   @DF-UKS iter  61:   -75.07271312488264   -8.58918e-10   3.01552e-07 DIIS
   @DF-UKS iter  62:   -75.07271312499878   -1.16145e-10   4.73589e-07 DIIS
   @DF-UKS iter  63:   -75.07271312459902    3.99766e-10   1.45465e-07 DIIS
   @DF-UKS iter  64:   -75.07271312426303    3.35987e-10   2.28101e-07 DIIS
   @DF-UKS iter  65:   -75.07271312458377   -3.20739e-10   2.36771e-07 DIIS
   @DF-UKS iter  66:   -75.07271312588662   -1.30285e-09   2.19569e-07 DIIS
   @DF-UKS iter  67:   -75.07271312781235   -1.92573e-09   1.79410e-06 DIIS
   @DF-UKS iter  68:   -75.07271312676693    1.04542e-09   2.57933e-06 DIIS
   @DF-UKS iter  69:   -75.07271312748702   -7.20092e-10   2.32310e-06 DIIS
   @DF-UKS iter  70:   -75.07271312702825    4.58769e-10   2.66805e-06 DIIS
   @DF-UKS iter  71:   -75.07271312873073   -1.70247e-09   4.26672e-07 DIIS
   @DF-UKS iter  72:   -75.07271312813619    5.94540e-10   2.42428e-06 DIIS
   @DF-UKS iter  73:   -75.07271312894146   -8.05272e-10   2.15467e-06 DIIS
   @DF-UKS iter  74:   -75.07271312848317    4.58286e-10   2.40222e-06 DIIS
   @DF-UKS iter  75:   -75.07271312835425    1.28921e-10   2.45897e-06 DIIS
   @DF-UKS iter  76:   -75.07271313012515   -1.77090e-09   2.06416e-07 DIIS
   @DF-UKS iter  77:   -75.07271313023006   -1.04905e-10   1.37783e-07 DIIS
   @DF-UKS iter  78:   -75.07271313045840   -2.28340e-10   2.26860e-07 DIIS
   @DF-UKS iter  79:   -75.07271313068109   -2.22698e-10   4.48805e-07 DIIS
   @DF-UKS iter  80:   -75.07271313076365   -8.25509e-11   4.75378e-07 DIIS
   @DF-UKS iter  81:   -75.07271313084436   -8.07177e-11   1.86069e-07 DIIS
   @DF-UKS iter  82:   -75.07271313086333   -1.89715e-11   6.21943e-08 DIIS
   @DF-UKS iter  83:   -75.07271313086534   -2.00373e-12   5.42927e-08 DIIS
   @DF-UKS iter  84:   -75.07271313086086    4.47642e-12   1.56254e-07 DIIS
   @DF-UKS iter  85:   -75.07271313087070   -9.83391e-12   4.76263e-08 DIIS
   @DF-UKS iter  86:   -75.07271313087149   -7.95808e-13   1.38454e-08 DIIS
   @DF-UKS iter  87:   -75.07271313087156   -7.10543e-14   7.08429e-09 DIIS
   @DF-UKS iter  88:   -75.07271313087156    0.00000e+00   1.04431e-09 DIIS
   @DF-UKS iter  89:   -75.07271313087159   -2.84217e-14   4.03640e-10 DIIS
  Energy and wave function converged.


  ==> Post-Iterations <==

   Electrons on quadrature grid:
      Nalpha   =    5.0000000000 ; deviation = -5.563e-12
      Nbeta    =    4.0000000000 ; deviation = -5.549e-12
      Ntotal   =    9.0000000000 ; deviation = -1.111e-11 

   @Spin Contamination Metric:   5.989994225E-03
   @S^2 Expected:                7.500000000E-01
   @S^2 Observed:                7.559899942E-01
   @S   Expected:                5.000000000E-01
   @S   Observed:                5.000000000E-01

    Orbital Energies [Eh]
    ---------------------

    Alpha Occupied:                                                       

       1A    -18.829928     2A     -0.549546     3A     -0.041039  
       4A      0.023608     5A      0.023608  

    Alpha Virtual:                                                        

       6A      0.317201     7A      0.333612     8A      0.343273  
       9A      0.343273    10A      0.704286    11A      0.707749  
      12A      0.707749    13A      0.719970    14A      0.719970  
      15A      1.355437    16A      1.399916    17A      1.399916  
      18A      1.436531    19A      3.079987    20A      3.095940  
      21A      3.095940    22A      3.146420    23A      3.146420  

    Beta Occupied:                                                        

       1A    -18.805184     2A     -0.472194     3A      0.050907  
       4A      0.050907  

    Beta Virtual:                                                         

       5A      0.172966     6A      0.323384     7A      0.347988  
       8A      0.347989     9A      0.371879    10A      0.718368  
      11A      0.718368    12A      0.719231    13A      0.719234  
      14A      0.724379    15A      1.417216    16A      1.417217  
      17A      1.447745    18A      1.470745    19A      3.162769  
      20A      3.162769    21A      3.173257    22A      3.173258  
      23A      3.188517  

    Final Occupation by Irrep:
              A 
    DOCC [     4 ]
    SOCC [     1 ]
    NA   [     5 ]
    NB   [     4 ]

  @DF-UKS Final Energy:   -75.07271313087159

   => Energetics <=

    Nuclear Repulsion Energy =              0.0000000000000000
    One-Electron Energy =                -106.5441794187975688
    Two-Electron Energy =                  38.4954957659668295
    DFT Exchange-Correlation Energy =      -7.0240294780408385
    Empirical Dispersion Energy =           0.0000000000000000
    VV10 Nonlocal Energy =                  0.0000000000000000
    Total Energy =                        -75.0727131308715769

  UHF NO Occupations:
  HONO-2 :    3  A 1.9988161
  HONO-1 :    4  A 1.9988159
  HONO-0 :    5  A 1.0000000
  LUNO+0 :    6  A 0.0011841
  LUNO+1 :    7  A 0.0011839
  LUNO+2 :    8  A 0.0006285
  LUNO+3 :    9  A 0.0000001


Computation Completed


Properties will be evaluated at   0.000000,   0.000000,   0.000000 [a0]

Properties computed using the SCF density matrix


 Multipole Moments:

 ------------------------------------------------------------------------------------
     Multipole            Electronic (a.u.)      Nuclear  (a.u.)        Total (a.u.)
 ------------------------------------------------------------------------------------

 L = 1.  Multiply by 2.5417464519 to convert [e a0] to [Debye]
 Dipole X            :         -0.0000000            0.0000000           -0.0000000
 Dipole Y            :         -0.0000000            0.0000000           -0.0000000
 Dipole Z            :          0.0000000            0.0000000            0.0000000
 Magnitude           :                                                    0.0000000

 ------------------------------------------------------------------------------------

*** tstop() called on PNNL-KM3X724WWL at Sun Jul 19 17:43:20 2026
Module time:
	user time   =       2.55 seconds =       0.04 minutes
	system time =       0.51 seconds =       0.01 minutes
	total time  =          1 seconds =       0.02 minutes
Total time:
	user time   =      27.38 seconds =       0.46 minutes
	system time =       1.09 seconds =       0.02 minutes
	total time  =          4 seconds =       0.07 minutes

Scratch directory: /tmp/
gradient() will perform analytic gradient computation.
   => Libint2 <=

    Primary   basis highest AM E, G, H:  7, 6, 3
    Auxiliary basis highest AM E, G, H:  7, 7, 4
    Onebody   basis highest AM E, G, H:  -, -, -
    Solid Harmonics ordering:            Gaussian

*** tstart() called on PNNL-KM3X724WWL
*** at Sun Jul 19 17:43:21 2026

   => Loading Basis Set <=

    Name: DEF2-SVPD
    Role: ORBITAL
    Keyword: BASIS
    atoms 1 entry O          line   149 file /opt/miniconda3/envs/rsfff/share/psi4/basis/def2-svpd.gbs 
    atoms 2 entry H          line    14 file /opt/miniconda3/envs/rsfff/share/psi4/basis/def2-svpd.gbs 


         ---------------------------------------------------------
                                   SCF
               by Justin Turney, Rob Parrish, Andy Simmonett
                          and Daniel G. A. Smith
                              UKS Reference
                       14 Threads,   7629 MiB Core
         ---------------------------------------------------------

  ==> Geometry <==

    Molecular point group: c1
    Full point group: C_inf_v

    Geometry (in Angstrom), charge = 0, multiplicity = 2:

       Center              X                  Y                   Z               Mass       
    ------------   -----------------  -----------------  -----------------  -----------------
         O            0.000000000000     0.000000000000     0.000000000000    15.994914619570
         H            0.000000000000     0.000000000000     0.970000000000     1.007825032230

  Running in c1 symmetry.

  Rotational constants: A = ************  B =     17.77739  C =     17.77739 [cm^-1]
  Rotational constants: A = ************  B = 532952.60546  C = 532952.60546 [MHz]
  Nuclear repulsion =    4.364348129237113

  Charge       = 0
  Multiplicity = 2
  Electrons    = 9
  Nalpha       = 5
  Nbeta        = 4

  ==> Algorithm <==

  SCF Algorithm Type is DF.
  DIIS enabled.
  MOM disabled.
  Fractional occupation disabled.
  Guess Type is SAD.
  Energy threshold   = 1.00e-09
  Density threshold  = 1.00e-09
  Integral threshold = 1.00e-12

  ==> Primary Basis <==

  Basis Set: DEF2-SVPD
    Blend: DEF2-SVPD
    Number of shells: 13
    Number of basis functions: 31
    Number of Cartesian functions: 33
    Spherical Harmonics?: true
    Max angular momentum: 2

  ==> DFT Potential <==

   => LibXC <=

    Version 7.0.0
    S. Lehtola, C. Steigemann, M. J.T. Oliveira, and M. A.L. Marques.,  SoftwareX 7, 1–5 (2018) (10.1016/j.softx.2017.11.002)

   => Composite Functional: B3LYP <= 

    B3LYP Hyb-GGA Exchange-Correlation Functional

    P. J. Stephens, F. J. Devlin, C. F. Chabalowski, and M. J. Frisch.,  J. Phys. Chem. 98, 11623 (1994) (10.1021/j100096a001)

    Deriv               =              1
    GGA                 =           TRUE
    Meta                =          FALSE

    Exchange Hybrid     =           TRUE
    MP2 Hybrid          =          FALSE

   => Exchange Functionals <=

    0.0800   Slater exchange
    0.7200         Becke 88

   => Exact (HF) Exchange <=

    0.2000               HF 

   => Correlation Functionals <=

    0.1900   Vosko, Wilk & Nusair (VWN5_RPA)
    0.8100   Lee, Yang & Parr

   => LibXC Density Thresholds  <==

    XC_HYB_GGA_XC_B3LYP:  1.00E-15 

   => Molecular Quadrature <=

    Radial Scheme          =       TREUTLER
    Pruning Scheme         =           NONE
    Nuclear Scheme         =       TREUTLER

    Blocking Scheme        =         OCTREE
    BS radius alpha        =              1
    Pruning alpha          =              1
    Radial Points          =             75
    Spherical Points       =            302
    Total Points           =          44592
    Total Blocks           =            397
    Max Points             =            256
    Max Functions          =             31
    Weights Tolerance      =       1.00E-15

   => Loading Basis Set <=

    Name: (DEF2-SVPD AUX)
    Role: JKFIT
    Keyword: DF_BASIS_SCF
    atoms 1 entry O          line   318 file /opt/miniconda3/envs/rsfff/share/psi4/basis/def2-universal-jkfit.gbs 
    atoms 2 entry H          line    18 file /opt/miniconda3/envs/rsfff/share/psi4/basis/def2-universal-jkfit.gbs 

  ==> Integral Setup <==

  DFHelper Memory: AOs need 0.001 GiB; user supplied 5.548 GiB. 
  SCF_SUBTYPE=INCORE selected. In-core MEM_DF algorithm will be used.
  Using in-core AOs.

  ==> MemDFJK: Density-Fitted J/K Matrices <==

    J tasked:                   Yes
    K tasked:                   Yes
    wK tasked:                   No
    OpenMP threads:              14
    Memory [MiB]:              5681
    Algorithm:                 Core
    Schwarz Cutoff:           1E-12
    Mask sparsity (%):       0.0000
    Fitting Condition:        1E-10

   => Auxiliary Basis Set <=

  Basis Set: (DEF2-SVPD AUX)
    Blend: DEF2-UNIVERSAL-JKFIT
    Number of shells: 31
    Number of basis functions: 95
    Number of Cartesian functions: 113
    Spherical Harmonics?: true
    Max angular momentum: 4

  Cached 100.0% of DFT collocation blocks in 0.040 [GiB].

  Minimum eigenvalue in the overlap matrix is 6.5467663917E-03.
  Reciprocal condition number of the overlap matrix is 1.7340245645E-03.
    Using symmetric orthogonalization.

  ==> Pre-Iterations <==

  SCF Guess: Superposition of Atomic Densities via on-the-fly atomic UHF (no occupation information).

   -------------------------
    Irrep   Nso     Nmo    
   -------------------------
     A         31      31 
   -------------------------
    Total      31      31
   -------------------------

  ==> Iterations <==

                           Total Energy        Delta E     RMS |[F,P]|

   @DF-UKS iter SAD:   -75.29044441009712   -7.52904e+01   0.00000e+00 
   @DF-UKS iter   1:   -75.63146262015610   -3.41018e-01   1.12129e-02 DIIS/ADIIS
   @DF-UKS iter   2:   -75.58647406106093    4.49886e-02   1.56320e-02 DIIS/ADIIS
   @DF-UKS iter   3:   -75.68272434261131   -9.62503e-02   2.60524e-04 DIIS/ADIIS
   @DF-UKS iter   4:   -75.68277492916053   -5.05865e-05   7.64823e-05 DIIS
   @DF-UKS iter   5:   -75.68277945426325   -4.52510e-06   2.20111e-05 DIIS
   @DF-UKS iter   6:   -75.68277992573800   -4.71475e-07   5.95663e-06 DIIS
   @DF-UKS iter   7:   -75.68277996631861   -4.05806e-08   8.80155e-07 DIIS
   @DF-UKS iter   8:   -75.68277996705750   -7.38893e-10   1.06422e-07 DIIS
   @DF-UKS iter   9:   -75.68277996707165   -1.41540e-11   1.89148e-08 DIIS
   @DF-UKS iter  10:   -75.68277996707188   -2.27374e-13   1.17261e-09 DIIS
   @DF-UKS iter  11:   -75.68277996707187    1.42109e-14   1.98104e-10 DIIS
  Energy and wave function converged.


  ==> Post-Iterations <==

   Electrons on quadrature grid:
      Nalpha   =    5.0000000276 ; deviation = 2.757e-08
      Nbeta    =    4.0000000325 ; deviation = 3.255e-08
      Ntotal   =    9.0000000601 ; deviation = 6.011e-08 

   @Spin Contamination Metric:   2.454078635E-03
   @S^2 Expected:                7.500000000E-01
   @S^2 Observed:                7.524540786E-01
   @S   Expected:                5.000000000E-01
   @S   Observed:                5.000000000E-01

    Orbital Energies [Eh]
    ---------------------

    Alpha Occupied:                                                       

       1A    -19.225713     2A     -1.016991     3A     -0.490021  
       4A     -0.431729     5A     -0.359210  

    Alpha Virtual:                                                        

       6A      0.004839     7A      0.110834     8A      0.117560  
       9A      0.118031    10A      0.178913    11A      0.237088  
      12A      0.241277    13A      0.332180    14A      0.429362  
      15A      0.429715    16A      0.523992    17A      0.577974  
      18A      0.590942    19A      0.899671    20A      1.061749  
      21A      1.106245    22A      1.174011    23A      1.562458  
      24A      1.686413    25A      1.702479    26A      2.201791  
      27A      2.714962    28A      2.715972    29A      2.932853  
      30A      2.984642    31A      3.780996  

    Beta Occupied:                                                        

       1A    -19.200034     2A     -0.947237     3A     -0.463292  
       4A     -0.332006  

    Beta Virtual:                                                         

       5A     -0.188581     6A      0.009859     7A      0.119831  
       8A      0.120905     9A      0.131739    10A      0.182505  
      11A      0.240871    12A      0.242555    13A      0.340524  
      14A      0.440011    15A      0.443192    16A      0.528126  
      17A      0.591446    18A      0.592272    19A      0.903068  
      20A      1.121260    21A      1.151226    22A      1.197100  
      23A      1.584723    24A      1.699350    25A      1.700342  
      26A      2.218255    27A      2.793303    28A      2.803948  
      29A      2.997337    30A      3.007695    31A      3.806255  

    Final Occupation by Irrep:
              A 
    DOCC [     4 ]
    SOCC [     1 ]
    NA   [     5 ]
    NB   [     4 ]

  @DF-UKS Final Energy:   -75.68277996707187

   => Energetics <=

    Nuclear Repulsion Energy =              4.3643481292371131
    One-Electron Energy =                -112.4752501095762938
    Two-Electron Energy =                  39.5974393420001434
    DFT Exchange-Correlation Energy =      -7.1693173287328289
    Empirical Dispersion Energy =           0.0000000000000000
    VV10 Nonlocal Energy =                  0.0000000000000000
    Total Energy =                        -75.6827799670718662

  UHF NO Occupations:
  HONO-2 :    3  A 1.9997118
  HONO-1 :    4  A 1.9993237
  HONO-0 :    5  A 1.0000000
  LUNO+0 :    6  A 0.0006763
  LUNO+1 :    7  A 0.0002882
  LUNO+2 :    8  A 0.0002628
  LUNO+3 :    9  A 0.0000001


Computation Completed


Properties will be evaluated at   0.000000,   0.000000,   0.000000 [a0]

Properties computed using the SCF density matrix


 Multipole Moments:

 ------------------------------------------------------------------------------------
     Multipole            Electronic (a.u.)      Nuclear  (a.u.)        Total (a.u.)
 ------------------------------------------------------------------------------------

 L = 1.  Multiply by 2.5417464519 to convert [e a0] to [Debye]
 Dipole X            :         -0.0000000            0.0000000           -0.0000000
 Dipole Y            :          0.0000000            0.0000000            0.0000000
 Dipole Z            :         -1.1737032            1.8330343            0.6593311
 Magnitude           :                                                    0.6593311

 ------------------------------------------------------------------------------------

*** tstop() called on PNNL-KM3X724WWL at Sun Jul 19 17:43:22 2026
Module time:
	user time   =      12.73 seconds =       0.21 minutes
	system time =       0.23 seconds =       0.00 minutes
	total time  =          1 seconds =       0.02 minutes
Total time:
	user time   =      40.43 seconds =       0.67 minutes
	system time =       1.34 seconds =       0.02 minutes
	total time  =          6 seconds =       0.10 minutes

*** tstart() called on PNNL-KM3X724WWL
*** at Sun Jul 19 17:43:22 2026


         ------------------------------------------------------------
                                   SCF GRAD                          
                          Rob Parrish, Justin Turney,                
                       Andy Simmonett, and Alex Sokolov              
         ------------------------------------------------------------

  ==> Geometry <==

    Molecular point group: c1
    Full point group: C_inf_v

    Geometry (in Angstrom), charge = 0, multiplicity = 2:

       Center              X                  Y                   Z               Mass       
    ------------   -----------------  -----------------  -----------------  -----------------
         O            0.000000000000     0.000000000000     0.000000000000    15.994914619570
         H            0.000000000000     0.000000000000     0.970000000000     1.007825032230

  Nuclear repulsion =    4.364348129237113

  ==> Basis Set <==

  Basis Set: DEF2-SVPD
    Blend: DEF2-SVPD
    Number of shells: 13
    Number of basis functions: 31
    Number of Cartesian functions: 33
    Spherical Harmonics?: true
    Max angular momentum: 2

  ==> DFJKGrad: Density-Fitted SCF Gradients <==

    Gradient:                    1
    J tasked:                  Yes
    K tasked:                  Yes
    wK tasked:                  No
    OpenMP threads:             14
    Integrals threads:          14
    Memory [MiB]:             5722
    Schwarz Cutoff:          1E-12
    Fitting Condition:       1E-10

   => Auxiliary Basis Set <=

  Basis Set: (DEF2-SVPD AUX)
    Blend: DEF2-UNIVERSAL-JKFIT
    Number of shells: 31
    Number of basis functions: 95
    Number of Cartesian functions: 113
    Spherical Harmonics?: true
    Max angular momentum: 4

  ==> DFT Potential <==

   => LibXC <=

    Version 7.0.0
    S. Lehtola, C. Steigemann, M. J.T. Oliveira, and M. A.L. Marques.,  SoftwareX 7, 1–5 (2018) (10.1016/j.softx.2017.11.002)

   => Composite Functional: B3LYP <= 

    B3LYP Hyb-GGA Exchange-Correlation Functional

    P. J. Stephens, F. J. Devlin, C. F. Chabalowski, and M. J. Frisch.,  J. Phys. Chem. 98, 11623 (1994) (10.1021/j100096a001)

    Deriv               =              1
    GGA                 =           TRUE
    Meta                =          FALSE

    Exchange Hybrid     =           TRUE
    MP2 Hybrid          =          FALSE

   => Exchange Functionals <=

    0.0800   Slater exchange
    0.7200         Becke 88

   => Exact (HF) Exchange <=

    0.2000               HF 

   => Correlation Functionals <=

    0.1900   Vosko, Wilk & Nusair (VWN5_RPA)
    0.8100   Lee, Yang & Parr

   => LibXC Density Thresholds  <==

    XC_HYB_GGA_XC_B3LYP:  1.00E-15 

   => Molecular Quadrature <=

    Radial Scheme          =       TREUTLER
    Pruning Scheme         =           NONE
    Nuclear Scheme         =       TREUTLER

    Blocking Scheme        =         OCTREE
    BS radius alpha        =              1
    Pruning alpha          =              1
    Radial Points          =             75
    Spherical Points       =            302
    Total Points           =          44592
    Total Blocks           =            397
    Max Points             =            256
    Max Functions          =             31
    Weights Tolerance      =       1.00E-15


  -Total Gradient:
     Atom            X                  Y                   Z
    ------   -----------------  -----------------  -----------------
       1        0.000000000000     0.000000000000     0.007941631566
       2       -0.000000000000     0.000000000000    -0.007942164237


*** tstop() called on PNNL-KM3X724WWL at Sun Jul 19 17:43:22 2026
Module time:
	user time   =       0.12 seconds =       0.00 minutes
	system time =       0.10 seconds =       0.00 minutes
	total time  =          0 seconds =       0.00 minutes
Total time:
	user time   =      40.55 seconds =       0.68 minutes
	system time =       1.44 seconds =       0.02 minutes
	total time  =          6 seconds =       0.10 minutes

    			-----------------------------------------

    			 OPTKING 3.0: for geometry optimizations 

    			     By R.A. King, Bethel University     

    			        with contributions from          

    			    A.V. Copan, J. Cayton, A. Heide      

    			-----------------------------------------

    
	                            ===> Fragment 1 <== 

	 Z (Atomic Numbers)          Masses                          Geom                  
	       8.000000            15.994915          0.00000000  0.00000000  0.00000000   
	       1.000000             1.007825          0.00000000  0.00000000  1.83303434   

	 - Coordinate -           - BOHR/RAD -       - ANG/DEG -
	 R(1,2)           =         1.833034           0.970000


	        --- Internal Coordinate Step in ANG or DEG, aJ/ANG or AJ/DEG ---
	-------------------------------------------------------------------------------
	           Coordinate      Previous         Force          Change          New 
	           ----------      --------        ------          ------        ------
	               R(1,2)       0.97000        0.06543        0.00787       0.97787
	-------------------------------------------------------------------------------

	                                 ==> Convergence Check <==                                  
    
	Measures of convergence in internal coordinates in au.
    
	Criteria marked as inactive (o), active & met (*), and active & unmet ( ).

	----------------------------------------------------------------------------------------------~
	   Step    Total Energy     Delta E     Max Force     RMS Force      Max Disp      RMS Disp   ~
	----------------------------------------------------------------------------------------------~
	  Convergence Criteria     1.00e-06 *    3.00e-04 *             o    1.20e-03 *             o~
	----------------------------------------------------------------------------------------------~
	     1     -75.68277997   -7.57e+01      7.94e-03      7.94e-03 o    1.49e-02      1.49e-02 o  ~
	----------------------------------------------------------------------------------------------

Next Geometry in Ang 
	Fragment 1 (Ang)

	    O   0.0000000000   0.0000000000  -0.0039359142
	    H   0.0000000000   0.0000000000   0.9739359142


    Structure for next step:
    Molecular point group: c1
    Full point group: C_inf_v

    Geometry (in Angstrom), charge = 0, multiplicity = 2:

    O            0.000000000000     0.000000000000    -0.003935914154
    H            0.000000000000     0.000000000000     0.973935914154


Scratch directory: /tmp/
gradient() will perform analytic gradient computation.
   => Libint2 <=

    Primary   basis highest AM E, G, H:  7, 6, 3
    Auxiliary basis highest AM E, G, H:  7, 7, 4
    Onebody   basis highest AM E, G, H:  -, -, -
    Solid Harmonics ordering:            Gaussian

*** tstart() called on PNNL-KM3X724WWL
*** at Sun Jul 19 17:43:22 2026

   => Loading Basis Set <=

    Name: DEF2-SVPD
    Role: ORBITAL
    Keyword: BASIS
    atoms 1 entry O          line   149 file /opt/miniconda3/envs/rsfff/share/psi4/basis/def2-svpd.gbs 
    atoms 2 entry H          line    14 file /opt/miniconda3/envs/rsfff/share/psi4/basis/def2-svpd.gbs 


         ---------------------------------------------------------
                                   SCF
               by Justin Turney, Rob Parrish, Andy Simmonett
                          and Daniel G. A. Smith
                              UKS Reference
                       14 Threads,   7629 MiB Core
         ---------------------------------------------------------

  ==> Geometry <==

    Molecular point group: c1
    Full point group: C_inf_v

    Geometry (in Angstrom), charge = 0, multiplicity = 2:

       Center              X                  Y                   Z               Mass       
    ------------   -----------------  -----------------  -----------------  -----------------
         O            0.000000000000     0.000000000000    -0.003935914154    15.994914619570
         H            0.000000000000     0.000000000000     0.973935914154     1.007825032230

  Running in c1 symmetry.

  Rotational constants: A = ************  B =     17.62942  C =     17.62942 [cm^-1]
  Rotational constants: A = ************  B = 528516.73570  C = 528516.73570 [MHz]
  Nuclear repulsion =    4.329215304921117

  Charge       = 0
  Multiplicity = 2
  Electrons    = 9
  Nalpha       = 5
  Nbeta        = 4

  ==> Algorithm <==

  SCF Algorithm Type is DF.
  DIIS enabled.
  MOM disabled.
  Fractional occupation disabled.
  Guess Type is READ.
  Energy threshold   = 1.00e-09
  Density threshold  = 1.00e-09
  Integral threshold = 1.00e-12

  ==> Primary Basis <==

  Basis Set: DEF2-SVPD
    Blend: DEF2-SVPD
    Number of shells: 13
    Number of basis functions: 31
    Number of Cartesian functions: 33
    Spherical Harmonics?: true
    Max angular momentum: 2

  ==> DFT Potential <==

   => LibXC <=

    Version 7.0.0
    S. Lehtola, C. Steigemann, M. J.T. Oliveira, and M. A.L. Marques.,  SoftwareX 7, 1–5 (2018) (10.1016/j.softx.2017.11.002)

   => Composite Functional: B3LYP <= 

    B3LYP Hyb-GGA Exchange-Correlation Functional

    P. J. Stephens, F. J. Devlin, C. F. Chabalowski, and M. J. Frisch.,  J. Phys. Chem. 98, 11623 (1994) (10.1021/j100096a001)

    Deriv               =              1
    GGA                 =           TRUE
    Meta                =          FALSE

    Exchange Hybrid     =           TRUE
    MP2 Hybrid          =          FALSE

   => Exchange Functionals <=

    0.0800   Slater exchange
    0.7200         Becke 88

   => Exact (HF) Exchange <=

    0.2000               HF 

   => Correlation Functionals <=

    0.1900   Vosko, Wilk & Nusair (VWN5_RPA)
    0.8100   Lee, Yang & Parr

   => LibXC Density Thresholds  <==

    XC_HYB_GGA_XC_B3LYP:  1.00E-15 

   => Molecular Quadrature <=

    Radial Scheme          =       TREUTLER
    Pruning Scheme         =           NONE
    Nuclear Scheme         =       TREUTLER

    Blocking Scheme        =         OCTREE
    BS radius alpha        =              1
    Pruning alpha          =              1
    Radial Points          =             75
    Spherical Points       =            302
    Total Points           =          44594
    Total Blocks           =            399
    Max Points             =            255
    Max Functions          =             31
    Weights Tolerance      =       1.00E-15

   => Loading Basis Set <=

    Name: (DEF2-SVPD AUX)
    Role: JKFIT
    Keyword: DF_BASIS_SCF
    atoms 1 entry O          line   318 file /opt/miniconda3/envs/rsfff/share/psi4/basis/def2-universal-jkfit.gbs 
    atoms 2 entry H          line    18 file /opt/miniconda3/envs/rsfff/share/psi4/basis/def2-universal-jkfit.gbs 

   => Loading Basis Set <=

    Name: DEF2-SVPD
    Role: ORBITAL
    Keyword: BASIS
    atoms 1 entry O          line   149 file /opt/miniconda3/envs/rsfff/share/psi4/basis/def2-svpd.gbs 
    atoms 2 entry H          line    14 file /opt/miniconda3/envs/rsfff/share/psi4/basis/def2-svpd.gbs 

  Reading orbitals from file /tmp/isolated_species_psi4.default.92799.180.npy, no projection.

  ==> Integral Setup <==

  DFHelper Memory: AOs need 0.001 GiB; user supplied 5.548 GiB. 
  SCF_SUBTYPE=INCORE selected. In-core MEM_DF algorithm will be used.
  Using in-core AOs.

  ==> MemDFJK: Density-Fitted J/K Matrices <==

    J tasked:                   Yes
    K tasked:                   Yes
    wK tasked:                   No
    OpenMP threads:              14
    Memory [MiB]:              5681
    Algorithm:                 Core
    Schwarz Cutoff:           1E-12
    Mask sparsity (%):       0.0000
    Fitting Condition:        1E-10

   => Auxiliary Basis Set <=

  Basis Set: (DEF2-SVPD AUX)
    Blend: DEF2-UNIVERSAL-JKFIT
    Number of shells: 31
    Number of basis functions: 95
    Number of Cartesian functions: 113
    Spherical Harmonics?: true
    Max angular momentum: 4

  Cached 100.0% of DFT collocation blocks in 0.040 [GiB].

  Minimum eigenvalue in the overlap matrix is 6.6069580805E-03.
  Reciprocal condition number of the overlap matrix is 1.7521969802E-03.
    Using symmetric orthogonalization.

  ==> Pre-Iterations <==

  SCF Guess: Orbitals guess was supplied from a previous computation.

   -------------------------------------------------------
    Irrep   Nso     Nmo     Nalpha   Nbeta   Ndocc  Nsocc
   -------------------------------------------------------
     A         31      31       5       4       4       1
   -------------------------------------------------------
    Total      31      31       5       4       4       1
   -------------------------------------------------------

  ==> Iterations <==

                           Total Energy        Delta E     RMS |[F,P]|

   @DF-UKS iter   0:   -75.67803118153743   -7.56780e+01   6.08734e-04 
   @DF-UKS iter   1:   -75.68283635563299   -4.80517e-03   1.11865e-04 DIIS/ADIIS
   @DF-UKS iter   2:   -75.68283800467535   -1.64904e-06   9.58998e-05 DIIS
   @DF-UKS iter   3:   -75.68284122641408   -3.22174e-06   2.39786e-05 DIIS
   @DF-UKS iter   4:   -75.68284145069937   -2.24285e-07   1.64991e-06 DIIS
   @DF-UKS iter   5:   -75.68284145184083   -1.14146e-09   1.27715e-07 DIIS
   @DF-UKS iter   6:   -75.68284145186124   -2.04068e-11   2.75770e-08 DIIS
   @DF-UKS iter   7:   -75.68284145186237   -1.13687e-12   1.53765e-09 DIIS
   @DF-UKS iter   8:   -75.68284145186242   -4.26326e-14   2.92011e-10 DIIS
  Energy and wave function converged.


  ==> Post-Iterations <==

   Electrons on quadrature grid:
      Nalpha   =    5.0000000240 ; deviation = 2.404e-08
      Nbeta    =    4.0000000301 ; deviation = 3.014e-08
      Ntotal   =    9.0000000542 ; deviation = 5.418e-08 

   @Spin Contamination Metric:   2.482949849E-03
   @S^2 Expected:                7.500000000E-01
   @S^2 Observed:                7.524829498E-01
   @S   Expected:                5.000000000E-01
   @S   Observed:                5.000000000E-01

    Orbital Energies [Eh]
    ---------------------

    Alpha Occupied:                                                       

       1A    -19.226137     2A     -1.014773     3A     -0.488833  
       4A     -0.431351     5A     -0.358826  

    Alpha Virtual:                                                        

       6A      0.003791     7A      0.110948     8A      0.117717  
       9A      0.118051    10A      0.177143    11A      0.236269  
      12A      0.240417    13A      0.330442    14A      0.429503  
      15A      0.429844    16A      0.523595    17A      0.577900  
      18A      0.590836    19A      0.895978    20A      1.059946  
      21A      1.104444    22A      1.171748    23A      1.563020  
      24A      1.684693    25A      1.700498    26A      2.186476  
      27A      2.715321    28A      2.716295    29A      2.926851  
      30A      2.978709    31A      3.768290  

    Beta Occupied:                                                        

       1A    -19.200438     2A     -0.944821     3A     -0.462267  
       4A     -0.331610  

    Beta Virtual:                                                         

       5A     -0.188194     6A      0.008898     7A      0.120005  
       8A      0.120953     9A      0.131968    10A      0.180727  
      11A      0.239979    12A      0.241567    13A      0.338723  
      14A      0.440156    15A      0.443336    16A      0.527664  
      17A      0.591331    18A      0.592116    19A      0.899147  
      20A      1.119456    21A      1.149452    22A      1.194950  
      23A      1.585351    24A      1.697200    25A      1.698223  
      26A      2.202594    27A      2.793665    28A      2.804307  
      29A      2.991468    30A      3.001909    31A      3.793718  

    Final Occupation by Irrep:
              A 
    DOCC [     4 ]
    SOCC [     1 ]
    NA   [     5 ]
    NB   [     4 ]

  @DF-UKS Final Energy:   -75.68284145186242

   => Energetics <=

    Nuclear Repulsion Energy =              4.3292153049211173
    One-Electron Energy =                -112.4142414181648633
    Two-Electron Energy =                  39.5686634122770613
    DFT Exchange-Correlation Energy =      -7.1664787508957399
    Empirical Dispersion Energy =           0.0000000000000000
    VV10 Nonlocal Energy =                  0.0000000000000000
    Total Energy =                        -75.6828414518624157

  UHF NO Occupations:
  HONO-2 :    3  A 1.9997017
  HONO-1 :    4  A 1.9993205
  HONO-0 :    5  A 1.0000000
  LUNO+0 :    6  A 0.0006795
  LUNO+1 :    7  A 0.0002983
  LUNO+2 :    8  A 0.0002638
  LUNO+3 :    9  A 0.0000001


Computation Completed


Properties will be evaluated at   0.000000,   0.000000,   0.000000 [a0]

Properties computed using the SCF density matrix


 Multipole Moments:

 ------------------------------------------------------------------------------------
     Multipole            Electronic (a.u.)      Nuclear  (a.u.)        Total (a.u.)
 ------------------------------------------------------------------------------------

 L = 1.  Multiply by 2.5417464519 to convert [e a0] to [Debye]
 Dipole X            :          0.0000000            0.0000000            0.0000000
 Dipole Y            :         -0.0000000            0.0000000           -0.0000000
 Dipole Z            :         -1.1196651            1.7809697            0.6613046
 Magnitude           :                                                    0.6613046

 ------------------------------------------------------------------------------------

*** tstop() called on PNNL-KM3X724WWL at Sun Jul 19 17:43:22 2026
Module time:
	user time   =       1.33 seconds =       0.02 minutes
	system time =       0.07 seconds =       0.00 minutes
	total time  =          0 seconds =       0.00 minutes
Total time:
	user time   =      41.90 seconds =       0.70 minutes
	system time =       1.51 seconds =       0.03 minutes
	total time  =          6 seconds =       0.10 minutes

*** tstart() called on PNNL-KM3X724WWL
*** at Sun Jul 19 17:43:22 2026


         ------------------------------------------------------------
                                   SCF GRAD                          
                          Rob Parrish, Justin Turney,                
                       Andy Simmonett, and Alex Sokolov              
         ------------------------------------------------------------

  ==> Geometry <==

    Molecular point group: c1
    Full point group: C_inf_v

    Geometry (in Angstrom), charge = 0, multiplicity = 2:

       Center              X                  Y                   Z               Mass       
    ------------   -----------------  -----------------  -----------------  -----------------
         O            0.000000000000     0.000000000000    -0.003935914154    15.994914619570
         H            0.000000000000     0.000000000000     0.973935914154     1.007825032230

  Nuclear repulsion =    4.329215304921117

  ==> Basis Set <==

  Basis Set: DEF2-SVPD
    Blend: DEF2-SVPD
    Number of shells: 13
    Number of basis functions: 31
    Number of Cartesian functions: 33
    Spherical Harmonics?: true
    Max angular momentum: 2

  ==> DFJKGrad: Density-Fitted SCF Gradients <==

    Gradient:                    1
    J tasked:                  Yes
    K tasked:                  Yes
    wK tasked:                  No
    OpenMP threads:             14
    Integrals threads:          14
    Memory [MiB]:             5722
    Schwarz Cutoff:          1E-12
    Fitting Condition:       1E-10

   => Auxiliary Basis Set <=

  Basis Set: (DEF2-SVPD AUX)
    Blend: DEF2-UNIVERSAL-JKFIT
    Number of shells: 31
    Number of basis functions: 95
    Number of Cartesian functions: 113
    Spherical Harmonics?: true
    Max angular momentum: 4

  ==> DFT Potential <==

   => LibXC <=

    Version 7.0.0
    S. Lehtola, C. Steigemann, M. J.T. Oliveira, and M. A.L. Marques.,  SoftwareX 7, 1–5 (2018) (10.1016/j.softx.2017.11.002)

   => Composite Functional: B3LYP <= 

    B3LYP Hyb-GGA Exchange-Correlation Functional

    P. J. Stephens, F. J. Devlin, C. F. Chabalowski, and M. J. Frisch.,  J. Phys. Chem. 98, 11623 (1994) (10.1021/j100096a001)

    Deriv               =              1
    GGA                 =           TRUE
    Meta                =          FALSE

    Exchange Hybrid     =           TRUE
    MP2 Hybrid          =          FALSE

   => Exchange Functionals <=

    0.0800   Slater exchange
    0.7200         Becke 88

   => Exact (HF) Exchange <=

    0.2000               HF 

   => Correlation Functionals <=

    0.1900   Vosko, Wilk & Nusair (VWN5_RPA)
    0.8100   Lee, Yang & Parr

   => LibXC Density Thresholds  <==

    XC_HYB_GGA_XC_B3LYP:  1.00E-15 

   => Molecular Quadrature <=

    Radial Scheme          =       TREUTLER
    Pruning Scheme         =           NONE
    Nuclear Scheme         =       TREUTLER

    Blocking Scheme        =         OCTREE
    BS radius alpha        =              1
    Pruning alpha          =              1
    Radial Points          =             75
    Spherical Points       =            302
    Total Points           =          44594
    Total Blocks           =            399
    Max Points             =            255
    Max Functions          =             31
    Weights Tolerance      =       1.00E-15


  -Total Gradient:
     Atom            X                  Y                   Z
    ------   -----------------  -----------------  -----------------
       1       -0.000000000000     0.000000000000     0.000392791173
       2        0.000000000000    -0.000000000000    -0.000393278526


*** tstop() called on PNNL-KM3X724WWL at Sun Jul 19 17:43:23 2026
Module time:
	user time   =       0.13 seconds =       0.00 minutes
	system time =       0.04 seconds =       0.00 minutes
	total time  =          1 seconds =       0.02 minutes
Total time:
	user time   =      42.03 seconds =       0.70 minutes
	system time =       1.55 seconds =       0.03 minutes
	total time  =          7 seconds =       0.12 minutes

    			-----------------------------------------

    			 OPTKING 3.0: for geometry optimizations 

    			     By R.A. King, Bethel University     

    			        with contributions from          

    			    A.V. Copan, J. Cayton, A. Heide      

    			-----------------------------------------

    
	                            ===> Fragment 1 <== 

	 Z (Atomic Numbers)          Masses                          Geom                  
	       8.000000            15.994915          0.00000000  0.00000000 -0.00743780   
	       1.000000             1.007825          0.00000000  0.00000000  1.84047214   

	 - Coordinate -           - BOHR/RAD -       - ANG/DEG -
	 R(1,2)           =         1.847910           0.977872


	        --- Internal Coordinate Step in ANG or DEG, aJ/ANG or AJ/DEG ---
	-------------------------------------------------------------------------------
	           Coordinate      Previous         Force          Change          New 
	           ----------      --------        ------          ------        ------
	               R(1,2)       0.97787        0.00324        0.00041       0.97828
	-------------------------------------------------------------------------------

	                                 ==> Convergence Check <==                                  
    
	Measures of convergence in internal coordinates in au.
    
	Criteria marked as inactive (o), active & met (*), and active & unmet ( ).

	----------------------------------------------------------------------------------------------
	   Step    Total Energy     Delta E     Max Force     RMS Force      Max Disp      RMS Disp   
	----------------------------------------------------------------------------------------------
	  Convergence Criteria     1.00e-06 *    3.00e-04 *             o    1.20e-03 *             o
	----------------------------------------------------------------------------------------------
	     2     -75.68284145   -6.15e-05      3.93e-04      3.93e-04 o    7.75e-04 *    7.75e-04 o  ~
	----------------------------------------------------------------------------------------------

Next Geometry in Ang 
	Fragment 1 (Ang)

	    O   0.0000000000   0.0000000000  -0.0041408391
	    H   0.0000000000   0.0000000000   0.9741408391


    Structure for next step:
    Molecular point group: c1
    Full point group: C_inf_v

    Geometry (in Angstrom), charge = 0, multiplicity = 2:

    O            0.000000000000     0.000000000000    -0.004140839119
    H            0.000000000000     0.000000000000     0.974140839119


Scratch directory: /tmp/
gradient() will perform analytic gradient computation.
   => Libint2 <=

    Primary   basis highest AM E, G, H:  7, 6, 3
    Auxiliary basis highest AM E, G, H:  7, 7, 4
    Onebody   basis highest AM E, G, H:  -, -, -
    Solid Harmonics ordering:            Gaussian

*** tstart() called on PNNL-KM3X724WWL
*** at Sun Jul 19 17:43:23 2026

   => Loading Basis Set <=

    Name: DEF2-SVPD
    Role: ORBITAL
    Keyword: BASIS
    atoms 1 entry O          line   149 file /opt/miniconda3/envs/rsfff/share/psi4/basis/def2-svpd.gbs 
    atoms 2 entry H          line    14 file /opt/miniconda3/envs/rsfff/share/psi4/basis/def2-svpd.gbs 


         ---------------------------------------------------------
                                   SCF
               by Justin Turney, Rob Parrish, Andy Simmonett
                          and Daniel G. A. Smith
                              UKS Reference
                       14 Threads,   7629 MiB Core
         ---------------------------------------------------------

  ==> Geometry <==

    Molecular point group: c1
    Full point group: C_inf_v

    Geometry (in Angstrom), charge = 0, multiplicity = 2:

       Center              X                  Y                   Z               Mass       
    ------------   -----------------  -----------------  -----------------  -----------------
         O            0.000000000000     0.000000000000    -0.004140839119    15.994914619570
         H            0.000000000000     0.000000000000     0.974140839119     1.007825032230

  Running in c1 symmetry.

  Rotational constants: A = ************  B =     17.62152  C =     17.62152 [cm^-1]
[...]
    0.7200         Becke 88

   => Exact (HF) Exchange <=

    0.2000               HF 

   => Correlation Functionals <=

    0.1900   Vosko, Wilk & Nusair (VWN5_RPA)
    0.8100   Lee, Yang & Parr

   => LibXC Density Thresholds  <==

    XC_HYB_GGA_XC_B3LYP:  1.00E-15 

   => Molecular Quadrature <=

    Radial Scheme          =       TREUTLER
    Pruning Scheme         =           NONE
    Nuclear Scheme         =       TREUTLER

    Blocking Scheme        =         OCTREE
    BS radius alpha        =              1
    Pruning alpha          =              1
    Radial Points          =             75
    Spherical Points       =            302
    Total Points           =          66712
    Total Blocks           =            558
    Max Points             =            256
    Max Functions          =             39
    Weights Tolerance      =       1.00E-15

   => Loading Basis Set <=

    Name: (DEF2-SVPD AUX)
    Role: JKFIT
    Keyword: DF_BASIS_SCF
    atoms 1   entry O          line   318 file /opt/miniconda3/envs/rsfff/share/psi4/basis/def2-universal-jkfit.gbs 
    atoms 2-3 entry H          line    18 file /opt/miniconda3/envs/rsfff/share/psi4/basis/def2-universal-jkfit.gbs 

  ==> Integral Setup <==

  DFHelper Memory: AOs need 0.002 GiB; user supplied 5.513 GiB. 
  SCF_SUBTYPE=INCORE selected. In-core MEM_DF algorithm will be used.
  Using in-core AOs.

  ==> MemDFJK: Density-Fitted J/K Matrices <==

    J tasked:                   Yes
    K tasked:                   Yes
    wK tasked:                   No
    OpenMP threads:              14
    Memory [MiB]:              5644
    Algorithm:                 Core
    Schwarz Cutoff:           1E-12
    Mask sparsity (%):       0.0000
    Fitting Condition:        1E-10

   => Auxiliary Basis Set <=

  Basis Set: (DEF2-SVPD AUX)
    Blend: DEF2-UNIVERSAL-JKFIT
    Number of shells: 37
    Number of basis functions: 113
    Number of Cartesian functions: 133
    Spherical Harmonics?: true
    Max angular momentum: 4

  Cached 100.0% of DFT collocation blocks in 0.075 [GiB].

  Minimum eigenvalue in the overlap matrix is 5.3837261135E-03.
  Reciprocal condition number of the overlap matrix is 1.0811831013E-03.
    Using symmetric orthogonalization.

  ==> Pre-Iterations <==

  SCF Guess: Superposition of Atomic Densities via on-the-fly atomic UHF (no occupation information).

   -------------------------
    Irrep   Nso     Nmo    
   -------------------------
     A         39      39 
   -------------------------
    Total      39      39
   -------------------------

  ==> Iterations <==

                           Total Energy        Delta E     RMS |[F,P]|

   @DF-UKS iter SAD:   -76.04607257921786   -7.60461e+01   0.00000e+00 
   @DF-UKS iter   1:   -75.89534169288970    1.50731e-01   4.40748e-03 DIIS/ADIIS
   @DF-UKS iter   2:   -75.90092804487362   -5.58635e-03   3.60404e-03 DIIS/ADIIS
   @DF-UKS iter   3:   -75.90808482742075   -7.15678e-03   7.04495e-04 DIIS/ADIIS
   @DF-UKS iter   4:   -75.90838042904952   -2.95602e-04   9.07107e-05 DIIS
   @DF-UKS iter   5:   -75.90838782297574   -7.39393e-06   2.08473e-05 DIIS
   @DF-UKS iter   6:   -75.90838861289642   -7.89921e-07   3.01066e-06 DIIS
   @DF-UKS iter   7:   -75.90838863006044   -1.71640e-08   2.41941e-07 DIIS
   @DF-UKS iter   8:   -75.90838863014990   -8.94573e-11   2.82090e-08 DIIS
   @DF-UKS iter   9:   -75.90838863015061   -7.10543e-13   2.20008e-09 DIIS
   @DF-UKS iter  10:   -75.90838863015060    1.42109e-14   1.06138e-10 DIIS
  Energy and wave function converged.


  ==> Post-Iterations <==

   Electrons on quadrature grid:
      Nalpha   =    5.0000001402 ; deviation = 1.402e-07
      Nbeta    =    4.0000001221 ; deviation = 1.221e-07
      Ntotal   =    9.0000002623 ; deviation = 2.623e-07 

   @Spin Contamination Metric:   2.431562805E-03
   @S^2 Expected:                7.500000000E-01
   @S^2 Observed:                7.524315628E-01
   @S   Expected:                5.000000000E-01
   @S   Observed:                5.000000000E-01

    Orbital Energies [Eh]
    ---------------------

    Alpha Occupied:                                                       

       1A    -19.705911     2A     -1.522852     3A     -1.012783  
       4A     -0.886686     5A     -0.874678  

    Alpha Virtual:                                                        

       6A     -0.290163     7A     -0.213263     8A     -0.126249  
       9A     -0.115083    10A     -0.079410    11A     -0.072183  
      12A     -0.017985    13A     -0.006400    14A      0.018542  
      15A      0.082505    16A      0.094024    17A      0.155544  
      18A      0.234544    19A      0.244072    20A      0.271117  
      21A      0.306512    22A      0.312729    23A      0.557477  
      24A      0.674238    25A      0.742079    26A      0.812109  
      27A      1.136724    28A      1.210642    29A      1.261599  
      30A      1.409780    31A      1.546290    32A      1.550452  
      33A      1.812703    34A      1.901962    35A      2.470174  
      36A      2.529824    37A      2.721512    38A      3.132025  
      39A      3.564773  

    Beta Occupied:                                                        

       1A    -19.678049     2A     -1.452463     3A     -0.991009  
       4A     -0.843851  

    Beta Virtual:                                                         

       5A     -0.622075     6A     -0.281041     7A     -0.208273  
       8A     -0.112750     9A     -0.106832    10A     -0.079990  
      11A     -0.068039    12A     -0.015200    13A     -0.002941  
      14A      0.023721    15A      0.090823    16A      0.097218  
      17A      0.155368    18A      0.243852    19A      0.247287  
      20A      0.285733    21A      0.313760    22A      0.317422  
      23A      0.560528    24A      0.676083    25A      0.824746  
      26A      0.826976    27A      1.143999    28A      1.237656  
      29A      1.271619    30A      1.423923    31A      1.546140  
      32A      1.554285    33A      1.818828    34A      1.955306  
      35A      2.546156    36A      2.605905    37A      2.742046  
      38A      3.187572    39A      3.576767  

    Final Occupation by Irrep:
              A 
    DOCC [     4 ]
    SOCC [     1 ]
    NA   [     5 ]
    NB   [     4 ]

  @DF-UKS Final Energy:   -75.90838863015060

   => Energetics <=

    Nuclear Repulsion Energy =              9.1274070226316812
    One-Electron Energy =                -117.8997876243213909
    Two-Electron Energy =                  40.1074490407139876
    DFT Exchange-Correlation Energy =      -7.2434570691748812
    Empirical Dispersion Energy =           0.0000000000000000
    VV10 Nonlocal Energy =                  0.0000000000000000
    Total Energy =                        -75.9083886301505970

  UHF NO Occupations:
  HONO-2 :    3  A 1.9997000
  HONO-1 :    4  A 1.9992501
  HONO-0 :    5  A 1.0000000
  LUNO+0 :    6  A 0.0007499
  LUNO+1 :    7  A 0.0003000
  LUNO+2 :    8  A 0.0001661
  LUNO+3 :    9  A 0.0000001


Computation Completed


Properties will be evaluated at   0.000000,   0.000000,   0.000000 [a0]

Properties computed using the SCF density matrix


 Multipole Moments:

 ------------------------------------------------------------------------------------
     Multipole            Electronic (a.u.)      Nuclear  (a.u.)        Total (a.u.)
 ------------------------------------------------------------------------------------

 L = 1.  Multiply by 2.5417464519 to convert [e a0] to [Debye]
 Dipole X            :         -0.0000000            0.0000000           -0.0000000
 Dipole Y            :         -0.0000000            0.0000000           -0.0000000
 Dipole Z            :         -0.8258752           -0.0201507           -0.8460259
 Magnitude           :                                                    0.8460259

 ------------------------------------------------------------------------------------

*** tstop() called on PNNL-KM3X724WWL at Sun Jul 19 17:43:25 2026
Module time:
	user time   =       2.08 seconds =       0.03 minutes
	system time =       0.21 seconds =       0.00 minutes
	total time  =          0 seconds =       0.00 minutes
Total time:
	user time   =      49.24 seconds =       0.82 minutes
	system time =       2.60 seconds =       0.04 minutes
	total time  =          9 seconds =       0.15 minutes

Scratch directory: /tmp/
   => Libint2 <=

    Primary   basis highest AM E, G, H:  7, 6, 3
    Auxiliary basis highest AM E, G, H:  7, 7, 4
    Onebody   basis highest AM E, G, H:  -, -, -
    Solid Harmonics ordering:            Gaussian

*** tstart() called on PNNL-KM3X724WWL
*** at Sun Jul 19 17:43:25 2026

   => Loading Basis Set <=

    Name: DEF2-SVPD
    Role: ORBITAL
    Keyword: BASIS
    atoms 1   entry O          line   149 file /opt/miniconda3/envs/rsfff/share/psi4/basis/def2-svpd.gbs 
    atoms 2-3 entry H          line    14 file /opt/miniconda3/envs/rsfff/share/psi4/basis/def2-svpd.gbs 


         ---------------------------------------------------------
                                   SCF
               by Justin Turney, Rob Parrish, Andy Simmonett
                          and Daniel G. A. Smith
                              UKS Reference
                       14 Threads,   7629 MiB Core
         ---------------------------------------------------------

  ==> Geometry <==

    Molecular point group: c1
    Full point group: C2v

    Geometry (in Angstrom), charge = -1, multiplicity = 2:

       Center              X                  Y                   Z               Mass       
    ------------   -----------------  -----------------  -----------------  -----------------
         O            0.000000000000     0.000000000000     0.115776671900    15.994914619570
         H            0.000000000000     0.766891452900    -0.468438335900     1.007825032230
         H            0.000000000000    -0.766891452900    -0.468438335900     1.007825032230

  Running in c1 symmetry.

  Rotational constants: A =     25.67011  B =     14.22046  C =      9.15105 [cm^-1]
  Rotational constants: A = 769570.41511  B = 426318.58671  C = 274341.65817 [MHz]
  Nuclear repulsion =    9.127407022631681

  Charge       = -1
  Multiplicity = 2
  Electrons    = 11
  Nalpha       = 6
  Nbeta        = 5

  ==> Algorithm <==

  SCF Algorithm Type is DF.
  DIIS enabled.
  MOM disabled.
  Fractional occupation disabled.
  Guess Type is SAD.
  Energy threshold   = 1.00e-09
  Density threshold  = 1.00e-09
  Integral threshold = 1.00e-12

  ==> Primary Basis <==

  Basis Set: DEF2-SVPD
    Blend: DEF2-SVPD
    Number of shells: 17
    Number of basis functions: 39
    Number of Cartesian functions: 41
    Spherical Harmonics?: true
    Max angular momentum: 2

  ==> DFT Potential <==

   => LibXC <=

    Version 7.0.0
    S. Lehtola, C. Steigemann, M. J.T. Oliveira, and M. A.L. Marques.,  SoftwareX 7, 1–5 (2018) (10.1016/j.softx.2017.11.002)

   => Composite Functional: B3LYP <= 

    B3LYP Hyb-GGA Exchange-Correlation Functional

    P. J. Stephens, F. J. Devlin, C. F. Chabalowski, and M. J. Frisch.,  J. Phys. Chem. 98, 11623 (1994) (10.1021/j100096a001)

    Deriv               =              1
    GGA                 =           TRUE
    Meta                =          FALSE

    Exchange Hybrid     =           TRUE
    MP2 Hybrid          =          FALSE

   => Exchange Functionals <=

    0.0800   Slater exchange
    0.7200         Becke 88

   => Exact (HF) Exchange <=

    0.2000               HF 

   => Correlation Functionals <=

    0.1900   Vosko, Wilk & Nusair (VWN5_RPA)
    0.8100   Lee, Yang & Parr

   => LibXC Density Thresholds  <==

    XC_HYB_GGA_XC_B3LYP:  1.00E-15 

   => Molecular Quadrature <=

    Radial Scheme          =       TREUTLER
    Pruning Scheme         =           NONE
    Nuclear Scheme         =       TREUTLER

    Blocking Scheme        =         OCTREE
    BS radius alpha        =              1
    Pruning alpha          =              1
    Radial Points          =             75
    Spherical Points       =            302
    Total Points           =          66712
    Total Blocks           =            558
    Max Points             =            256
    Max Functions          =             39
    Weights Tolerance      =       1.00E-15

   => Loading Basis Set <=

    Name: (DEF2-SVPD AUX)
    Role: JKFIT
    Keyword: DF_BASIS_SCF
    atoms 1   entry O          line   318 file /opt/miniconda3/envs/rsfff/share/psi4/basis/def2-universal-jkfit.gbs 
    atoms 2-3 entry H          line    18 file /opt/miniconda3/envs/rsfff/share/psi4/basis/def2-universal-jkfit.gbs 

  ==> Integral Setup <==

  DFHelper Memory: AOs need 0.002 GiB; user supplied 5.513 GiB. 
  SCF_SUBTYPE=INCORE selected. In-core MEM_DF algorithm will be used.
  Using in-core AOs.

  ==> MemDFJK: Density-Fitted J/K Matrices <==

    J tasked:                   Yes
    K tasked:                   Yes
    wK tasked:                   No
    OpenMP threads:              14
    Memory [MiB]:              5644
    Algorithm:                 Core
    Schwarz Cutoff:           1E-12
    Mask sparsity (%):       0.0000
    Fitting Condition:        1E-10

   => Auxiliary Basis Set <=

  Basis Set: (DEF2-SVPD AUX)
    Blend: DEF2-UNIVERSAL-JKFIT
    Number of shells: 37
    Number of basis functions: 113
    Number of Cartesian functions: 133
    Spherical Harmonics?: true
    Max angular momentum: 4

  Cached 100.0% of DFT collocation blocks in 0.075 [GiB].

  Minimum eigenvalue in the overlap matrix is 5.3837261135E-03.
  Reciprocal condition number of the overlap matrix is 1.0811831013E-03.
    Using symmetric orthogonalization.

  ==> Pre-Iterations <==

  SCF Guess: Superposition of Atomic Densities via on-the-fly atomic UHF (no occupation information).

   -------------------------
    Irrep   Nso     Nmo    
   -------------------------
     A         39      39 
   -------------------------
    Total      39      39
   -------------------------

  ==> Iterations <==

                           Total Energy        Delta E     RMS |[F,P]|

   @DF-UKS iter SAD:   -76.04607257921782   -7.60461e+01   0.00000e+00 
   @DF-UKS iter   1:   -76.05911129467250   -1.30387e-02   1.97443e-02 DIIS/ADIIS
   @DF-UKS iter   2:   -74.93620020059207    1.12291e+00   4.38943e-02 DIIS/ADIIS
   @DF-UKS iter   3:   -76.30577094988251   -1.36957e+00   4.43914e-03 DIIS/ADIIS
   @DF-UKS iter   4:   -76.31661737505229   -1.08464e-02   4.63743e-04 DIIS/ADIIS
   @DF-UKS iter   5:   -76.31683604519826   -2.18670e-04   3.59654e-05 DIIS
   @DF-UKS iter   6:   -76.31684162833811   -5.58314e-06   1.41032e-05 DIIS
   @DF-UKS iter   7:   -76.31684192229844   -2.93960e-07   2.88228e-06 DIIS
   @DF-UKS iter   8:   -76.31684193817571   -1.58773e-08   8.38909e-07 DIIS
   @DF-UKS iter   9:   -76.31684193903759   -8.61874e-10   1.14553e-07 DIIS
   @DF-UKS iter  10:   -76.31684193905974   -2.21547e-11   2.34116e-08 DIIS
   @DF-UKS iter  11:   -76.31684193906099   -1.25056e-12   2.41396e-09 DIIS
   @DF-UKS iter  12:   -76.31684193906096    2.84217e-14   2.99150e-10 DIIS
  Energy and wave function converged.


  ==> Post-Iterations <==

   Electrons on quadrature grid:
      Nalpha   =    6.0000001953 ; deviation = 1.953e-07
      Nbeta    =    5.0000001589 ; deviation = 1.589e-07
      Ntotal   =   11.0000003542 ; deviation = 3.542e-07 

   @Spin Contamination Metric:   3.553289964E-04
   @S^2 Expected:                7.500000000E-01
   @S^2 Observed:                7.503553290E-01
   @S   Expected:                5.000000000E-01
   @S   Observed:                5.000000000E-01

    Orbital Energies [Eh]
    ---------------------

    Alpha Occupied:                                                       

       1A    -18.908359     2A     -0.765755     3A     -0.300295  
       4A     -0.165966     5A     -0.089646     6A      0.134185  

    Alpha Virtual:                                                        

       7A      0.219150     8A      0.267863     9A      0.271195  
      10A      0.335996    11A      0.362789    12A      0.404624  
      13A      0.433968    14A      0.460417    15A      0.530520  
      16A      0.532583    17A      0.574629    18A      0.705127  
      19A      0.726260    20A      0.761918    21A      0.801884  
      22A      0.805906    23A      1.119696    24A      1.229618  
      25A      1.411358    26A      1.423027    27A      1.735545  
      28A      1.843812    29A      1.896023    30A      2.050552  
      31A      2.167489    32A      2.172354    33A      2.469586  
      34A      2.590799    35A      3.221245    36A      3.283317  
      37A      3.422469    38A      3.850478    39A      4.250919  

    Beta Occupied:                                                        

       1A    -18.904661     2A     -0.757379     3A     -0.295984  
       4A     -0.161009     5A     -0.086413  

    Beta Virtual:                                                         

       6A      0.200153     7A      0.242691     8A      0.274208  
       9A      0.280454    10A      0.356644    11A      0.386484  
      12A      0.425653    13A      0.451225    14A      0.475411  
      15A      0.550464    16A      0.550800    17A      0.589901  
      18A      0.715565    19A      0.733183    20A      0.765689  
      21A      0.808138    22A      0.813762    23A      1.130588  
      24A      1.236526    25A      1.417617    26A      1.427354  
      27A      1.739060    28A      1.849014    29A      1.899807  
      30A      2.054554    31A      2.173190    32A      2.176724  
      33A      2.479948    34A      2.600926    35A      3.226623  
      36A      3.286002    37A      3.429021    38A      3.855035  
      39A      4.257356  

    Final Occupation by Irrep:
              A 
    DOCC [     5 ]
    SOCC [     1 ]
    NA   [     6 ]
    NB   [     5 ]

  @DF-UKS Final Energy:   -76.31684193906096

   => Energetics <=

    Nuclear Repulsion Energy =              9.1274070226316812
    One-Electron Energy =                -125.0912928157728174
    Two-Electron Energy =                  47.3008839978378930
    DFT Exchange-Correlation Energy =      -7.6538401437577397
    Empirical Dispersion Energy =           0.0000000000000000
    VV10 Nonlocal Energy =                  0.0000000000000000
    Total Energy =                        -76.3168419390609785

  UHF NO Occupations:
  HONO-2 :    4  A 1.9999460
  HONO-1 :    5  A 1.9999062
  HONO-0 :    6  A 1.0000000
  LUNO+0 :    7  A 0.0000938
  LUNO+1 :    8  A 0.0000540
  LUNO+2 :    9  A 0.0000194
  LUNO+3 :   10  A 0.0000105


Computation Completed


Properties will be evaluated at   0.000000,   0.000000,   0.000000 [a0]

Properties computed using the SCF density matrix


 Multipole Moments:

 ------------------------------------------------------------------------------------
     Multipole            Electronic (a.u.)      Nuclear  (a.u.)        Total (a.u.)
 ------------------------------------------------------------------------------------

 L = 1.  Multiply by 2.5417464519 to convert [e a0] to [Debye]
 Dipole X            :          0.0000000            0.0000000            0.0000000
 Dipole Y            :         -0.0000000            0.0000000           -0.0000000
 Dipole Z            :          0.8571752           -0.0201507            0.8370245
 Magnitude           :                                                    0.8370245

 ------------------------------------------------------------------------------------

*** tstop() called on PNNL-KM3X724WWL at Sun Jul 19 17:43:26 2026
Module time:
	user time   =       1.84 seconds =       0.03 minutes
	system time =       0.21 seconds =       0.00 minutes
	total time  =          1 seconds =       0.02 minutes
Total time:
	user time   =      51.10 seconds =       0.85 minutes
	system time =       2.81 seconds =       0.05 minutes
	total time  =         10 seconds =       0.17 minutes
